   64   64    1    2
  0.1165706E+02  0.5091582E-09  0.5091582E-09  0.3323019E-08  0.5000000E-15
  1.000000000000000E-004
  CAR 
 Test of VASP submission                 
    654    121    416
 
  0.0000000E+00  0.0000000E+00  0.0000000E+00  0.8333333E-03
    1      -47.545930    -47.545752   1.000000   1.000000
    2      -47.542022    -47.541843   1.000000   1.000000
    3      -47.517214    -47.517027   1.000000   1.000000
    4      -47.517162    -47.516975   1.000000   1.000000
    5      -47.412538    -47.412323   1.000000   1.000000
    6      -47.412421    -47.412206   1.000000   1.000000
    7      -47.357402    -47.357098   1.000000   1.000000
    8      -47.357386    -47.357082   1.000000   1.000000
    9      -47.263355    -47.262688   1.000000   1.000000
   10      -47.263293    -47.262626   1.000000   1.000000
   11      -47.237762    -47.236967   1.000000   1.000000
   12      -47.237644    -47.236848   1.000000   1.000000
   13      -47.162692    -47.161951   1.000000   1.000000
   14      -47.157518    -47.156777   1.000000   1.000000
   15      -23.823963    -23.823761   1.000000   1.000000
   16      -23.823961    -23.823758   1.000000   1.000000
   17      -23.819901    -23.819769   1.000000   1.000000
   18      -23.808715    -23.808516   1.000000   1.000000
   19      -23.808713    -23.808514   1.000000   1.000000
   20      -23.805532    -23.805390   1.000000   1.000000
   21      -23.787171    -23.786991   1.000000   1.000000
   22      -23.787169    -23.786989   1.000000   1.000000
   23      -23.784420    -23.784237   1.000000   1.000000
   24      -23.784418    -23.784234   1.000000   1.000000
   25      -23.778345    -23.778138   1.000000   1.000000
   26      -23.774461    -23.774265   1.000000   1.000000
   27      -23.690354    -23.690180   1.000000   1.000000
   28      -23.690352    -23.690177   1.000000   1.000000
   29      -23.690276    -23.690101   1.000000   1.000000
   30      -23.690273    -23.690098   1.000000   1.000000
   31      -23.665082    -23.664778   1.000000   1.000000
   32      -23.665000    -23.664696   1.000000   1.000000
   33      -23.636016    -23.635692   1.000000   1.000000
   34      -23.636014    -23.635689   1.000000   1.000000
   35      -23.636000    -23.635676   1.000000   1.000000
   36      -23.635997    -23.635673   1.000000   1.000000
   37      -23.602426    -23.602152   1.000000   1.000000
   38      -23.602414    -23.602141   1.000000   1.000000
   39      -23.550835    -23.550218   1.000000   1.000000
   40      -23.550833    -23.550215   1.000000   1.000000
   41      -23.550807    -23.550189   1.000000   1.000000
   42      -23.550804    -23.550186   1.000000   1.000000
   43      -23.512501    -23.511722   1.000000   1.000000
   44      -23.512499    -23.511719   1.000000   1.000000
   45      -23.512494    -23.511715   1.000000   1.000000
   46      -23.512492    -23.511712   1.000000   1.000000
   47      -23.498051    -23.497247   1.000000   1.000000
   48      -23.498034    -23.497229   1.000000   1.000000
   49      -23.478257    -23.477444   1.000000   1.000000
   50      -23.478236    -23.477423   1.000000   1.000000
   51      -23.442616    -23.441879   1.000000   1.000000
   52      -23.442613    -23.441876   1.000000   1.000000
   53      -23.430445    -23.429676   1.000000   1.000000
   54      -23.419596    -23.418859   1.000000   1.000000
   55      -23.419593    -23.418857   1.000000   1.000000
   56      -23.410573    -23.409803   1.000000   1.000000
   57        0.936209      0.936419   1.000000   1.000000
   58        1.170096      1.170306   1.000000   1.000000
   59        1.295857      1.295929   1.000000   1.000000
   60        1.612270      1.612372   1.000000   1.000000
   61        1.875127      1.875249   1.000000   1.000000
   62        2.386735      2.386857   1.000000   1.000000
   63        2.593994      2.594130   1.000000   1.000000
   64        3.332037      3.332137   1.000000   1.000000
   65        3.349564      3.349658   1.000000   1.000000
   66        4.188766      4.188783   1.000000   1.000000
   67        4.251457      4.251466   1.000000   1.000000
   68        4.852741      4.852649   1.000000   1.000000
   69        4.856104      4.856009   1.000000   1.000000
   70        5.054177      5.054113   1.000000   1.000000
   71        5.074814      5.074845   1.000000   1.000000
   72        5.074814      5.074845   1.000000   1.000000
   73        5.104523      5.104541   1.000000   1.000000
   74        5.104523      5.104541   1.000000   1.000000
   75        5.188481      5.188113   1.000000   1.000000
   76        5.248946      5.248916   1.000000   1.000000
   77        5.248946      5.248917   1.000000   1.000000
   78        5.263055      5.262990   1.000000   1.000000
   79        5.263056      5.262991   1.000000   1.000000
   80        5.388465      5.388239   1.000000   1.000000
   81        5.388466      5.388240   1.000000   1.000000
   82        5.404775      5.404159   1.000000   1.000000
   83        5.435855      5.435706   1.000000   1.000000
   84        5.435856      5.435707   1.000000   1.000000
   85        5.503253      5.502892   1.000000   1.000000
   86        5.503253      5.502892   1.000000   1.000000
   87        5.590865      5.589856   1.000000   1.000000
   88        5.597562      5.597278   1.000000   1.000000
   89        5.597563      5.597278   1.000000   1.000000
   90        5.652940      5.652619   1.000000   1.000000
   91        5.674876      5.674628   1.000000   1.000000
   92        5.674876      5.674628   1.000000   1.000000
   93        5.685064      5.684384   1.000000   1.000000
   94        5.690001      5.689438   1.000000   1.000000
   95        5.690001      5.689438   1.000000   1.000000
   96        5.716113      5.715754   1.000000   1.000000
   97        5.716113      5.715754   1.000000   1.000000
   98        5.725676      5.725656   1.000000   1.000000
   99        5.739159      5.738802   1.000000   1.000000
  100        5.739160      5.738803   1.000000   1.000000
  101        5.785484      5.785432   1.000000   1.000000
  102        5.816656      5.816421   1.000000   1.000000
  103        5.816657      5.816421   1.000000   1.000000
  104        5.818530      5.818355   1.000000   1.000000
  105        5.823723      5.823565   1.000000   1.000000
  106        5.823724      5.823566   1.000000   1.000000
  107        5.899634      5.899346   1.000000   1.000000
  108        5.932809      5.932648   1.000000   1.000000
  109        5.940561      5.940551   1.000000   1.000000
  110        5.940561      5.940551   1.000000   1.000000
  111        5.947020      5.946957   1.000000   1.000000
  112        5.991557      5.991007   1.000000   1.000000
  113        6.016363      6.015957   1.000000   1.000000
  114        6.046788      6.046168   1.000000   1.000000
  115        6.101526      6.101443   1.000000   1.000000
  116        6.108135      6.108049   1.000000   1.000000
  117        6.108135      6.108050   1.000000   1.000000
  118        6.137007      6.136481   1.000000   1.000000
  119        6.147750      6.147324   1.000000   1.000000
  120        6.149174      6.148384   1.000000   1.000000
  121        6.149174      6.148384   1.000000   1.000000
  122        6.203414      6.203217   1.000000   1.000000
  123        6.283796      6.283041   1.000000   1.000000
  124        6.283796      6.283041   1.000000   1.000000
  125        6.310811      6.310072   1.000000   1.000000
  126        6.341626      6.340656   1.000000   1.000000
  127        6.378725      6.378483   1.000000   1.000000
  128        6.378725      6.378483   1.000000   1.000000
  129        6.420367      6.419901   1.000000   1.000000
  130        6.486727      6.485278   1.000000   1.000000
  131        6.552892      6.551955   1.000000   1.000000
  132        6.560848      6.560283   1.000000   1.000000
  133        6.560848      6.560283   1.000000   1.000000
  134        6.563975      6.562929   1.000000   1.000000
  135        6.583055      6.581966   1.000000   1.000000
  136        6.583055      6.581966   1.000000   1.000000
  137        6.647168      6.646155   1.000000   1.000000
  138        6.647168      6.646156   1.000000   1.000000
  139        6.650590      6.649410   1.000000   1.000000
  140        6.652707      6.651998   1.000000   1.000000
  141        6.652707      6.651998   1.000000   1.000000
  142        6.707179      6.705801   1.000000   1.000000
  143        6.707180      6.705801   1.000000   1.000000
  144        6.750316      6.749776   1.000000   1.000000
  145        6.855461      6.854847   1.000000   1.000000
  146        6.862803      6.862559   1.000000   1.000000
  147        6.862804      6.862559   1.000000   1.000000
  148        7.023579      7.022655   1.000000   1.000000
  149        7.085867      7.083901   1.000000   1.000000
  150        7.085867      7.083901   1.000000   1.000000
  151        7.124497      7.124079   1.000000   1.000000
  152        7.156212      7.155677   1.000000   1.000000
  153        7.156212      7.155677   1.000000   1.000000
  154        7.267292      7.266919   1.000000   1.000000
  155        7.267292      7.266920   1.000000   1.000000
  156        7.343604      7.343138   1.000000   1.000000
  157        7.343605      7.343138   1.000000   1.000000
  158        7.356892      7.356303   1.000000   1.000000
  159        7.359086      7.358643   1.000000   1.000000
  160        7.416001      7.415896   1.000000   1.000000
  161        7.416002      7.415897   1.000000   1.000000
  162        7.458444      7.458071   1.000000   1.000000
  163        7.459990      7.459929   1.000000   1.000000
  164        7.461693      7.461483   1.000000   1.000000
  165        7.587387      7.587028   1.000000   1.000000
  166        7.589018      7.588817   1.000000   1.000000
  167        7.595999      7.595771   1.000000   1.000000
  168        7.634043      7.633087   1.000000   1.000000
  169        7.634043      7.633087   1.000000   1.000000
  170        7.657694      7.657103   1.000000   1.000000
  171        7.679691      7.678232   1.000000   1.000000
  172        7.713280      7.712601   1.000000   1.000000
  173        7.718792      7.718444   1.000000   1.000000
  174        7.718793      7.718445   1.000000   1.000000
  175        7.740290      7.739561   1.000000   1.000000
  176        7.740291      7.739563   1.000000   1.000000
  177        7.748264      7.747715   1.000000   1.000000
  178        7.749092      7.747716   1.000000   1.000000
  179        7.749093      7.748079   1.000000   1.000000
  180        7.765207      7.764784   1.000000   1.000000
  181        7.779397      7.779306   1.000000   1.000000
  182        7.779398      7.779306   1.000000   1.000000
  183        7.812548      7.811484   1.000000   1.000000
  184        7.812549      7.811485   1.000000   1.000000
  185        7.819515      7.819082   1.000000   1.000000
  186        7.834672      7.833172   1.000000   1.000000
  187        7.834674      7.833174   1.000000   1.000000
  188        7.844855      7.843883   1.000000   1.000000
  189        7.847885      7.846892   1.000000   1.000000
  190        7.850472      7.850437   1.000000   1.000000
  191        7.850473      7.850438   1.000000   1.000000
  192        7.869027      7.868814   1.000000   1.000000
  193        7.869028      7.868815   1.000000   1.000000
  194        7.903801      7.903448   1.000000   1.000000
  195        7.903802      7.903450   1.000000   1.000000
  196        7.910823      7.910172   1.000000   1.000000
  197        7.910824      7.910720   1.000000   1.000000
  198        7.911824      7.910721   1.000000   1.000000
  199        7.943018      7.942165   1.000000   1.000000
  200        7.945191      7.945092   1.000000   1.000000
  201        7.945193      7.945093   1.000000   1.000000
  202        7.957826      7.957722   1.000000   1.000000
  203        7.957827      7.957723   1.000000   1.000000
  204        7.977310      7.976987   1.000000   1.000000
  205        7.977311      7.976988   1.000000   1.000000
  206        7.979311      7.978748   1.000000   1.000000
  207        7.979312      7.978750   1.000000   1.000000
  208        8.014986      8.013442   1.000000   1.000000
  209        8.023164      8.022544   1.000000   1.000000
  210        8.023165      8.022545   1.000000   1.000000
  211        8.027851      8.027332   1.000000   1.000000
  212        8.027852      8.027333   1.000000   1.000000
  213        8.043737      8.043403   1.000000   1.000000
  214        8.043737      8.043404   1.000000   1.000000
  215        8.079911      8.078925   1.000000   1.000000
  216        8.103581      8.102507   1.000000   1.000000
  217        8.131520      8.130216   1.000000   1.000000
  218        8.137987      8.137558   1.000000   1.000000
  219        8.137988      8.137559   1.000000   1.000000
  220        8.174446      8.173314   1.000000   1.000000
  221        8.174447      8.173315   1.000000   1.000000
  222        8.179112      8.178210   1.000000   1.000000
  223        8.179113      8.178210   1.000000   1.000000
  224        8.191803      8.190473   1.000000   1.000000
  225        8.197274      8.195961   1.000000   1.000000
  226        8.197275      8.195963   1.000000   1.000000
  227        8.200023      8.199104   1.000000   1.000000
  228        8.233830      8.232612   1.000000   1.000000
  229        8.233831      8.232613   1.000000   1.000000
  230        8.269526      8.268526   1.000000   1.000000
  231        8.299512      8.298185   1.000000   1.000000
  232        8.299513      8.298186   1.000000   1.000000
  233        8.309157      8.307832   1.000000   1.000000
  234        8.309158      8.307833   1.000000   1.000000
  235        8.334777      8.334056   1.000000   1.000000
  236        8.334778      8.334057   1.000000   1.000000
  237        8.336701      8.336212   1.000000   1.000000
  238        8.336701      8.336212   1.000000   1.000000
  239        8.428517      8.427520   1.000000   1.000000
  240        8.429230      8.428460   1.000000   1.000000
  241        8.429231      8.428461   1.000000   1.000000
  242        8.439352      8.438125   1.000000   1.000000
  243        8.469256      8.468505   1.000000   1.000000
  244        8.469257      8.468506   1.000000   1.000000
  245        8.552869      8.552574   1.000000   1.000000
  246        8.552870      8.552575   1.000000   1.000000
  247        8.562442      8.561832   1.000000   1.000000
  248        8.562442      8.561833   1.000000   1.000000
  249        8.649289      8.648339   1.000000   1.000000
  250        8.649290      8.648340   1.000000   1.000000
  251        8.654398      8.652858   1.000000   1.000000
  252        8.654399      8.652859   1.000000   1.000000
  253        8.692389      8.691019   1.000000   1.000000
  254        8.692390      8.691020   1.000000   1.000000
  255        8.696417      8.695482   1.000000   1.000000
  256        8.696417      8.695482   1.000000   1.000000
  257        8.708139      8.707714   1.000000   1.000000
  258        8.708140      8.707716   1.000000   1.000000
  259        8.744658      8.744496   1.000000   1.000000
  260        8.763715      8.763537   1.000000   1.000000
  261        8.763715      8.763538   1.000000   1.000000
  262        8.768176      8.767197   1.000000   1.000000
  263        8.773820      8.772813   1.000000   1.000000
  264        8.791289      8.790958   1.000000   1.000000
  265        8.791290      8.790959   1.000000   1.000000
  266        8.828730      8.827667   1.000000   1.000000
  267        8.828730      8.827667   1.000000   1.000000
  268        8.835351      8.835212   1.000000   1.000000
  269        8.838476      8.838353   1.000000   1.000000
  270        8.857643      8.856649   1.000000   1.000000
  271        8.857644      8.856650   1.000000   1.000000
  272        8.875537      8.874542   1.000000   1.000000
  273        8.875538      8.874543   1.000000   1.000000
  274        8.898745      8.898779   1.000000   1.000000
  275        8.988793      8.987813   1.000000   1.000000
  276        8.988793      8.987814   1.000000   1.000000
  277        8.990668      8.989243   1.000000   1.000000
  278        8.990669      8.989244   1.000000   1.000000
  279        9.003740      9.002415   1.000000   1.000000
  280        9.003741      9.002416   1.000000   1.000000
  281        9.029215      9.028579   1.000000   1.000000
  282        9.074748      9.074938   1.000000   1.000000
  283        9.076926      9.076131   1.000000   1.000000
  284        9.089704      9.089790   1.000000   1.000000
  285        9.176774      9.174868   1.000000   1.000000
  286        9.176774      9.174869   1.000000   1.000000
  287        9.185624      9.184916   1.000000   1.000000
  288        9.202360      9.202318   1.000000   1.000000
  289        9.219789      9.219755   1.000000   1.000000
  290        9.240022      9.238918   1.000000   1.000000
  291        9.240584      9.238918   1.000000   1.000000
  292        9.240585      9.239974   1.000000   1.000000
  293        9.268746      9.268458   1.000000   1.000000
  294        9.268747      9.268459   1.000000   1.000000
  295        9.274684      9.274625   1.000000   1.000000
  296        9.307558      9.307420   1.000000   1.000000
  297        9.324757      9.324280   1.000000   1.000000
  298        9.332458      9.332525   1.000000   1.000000
  299        9.351718      9.351486   1.000000   1.000000
  300        9.358437      9.356832   1.000000   1.000000
  301        9.358438      9.356833   1.000000   1.000000
  302        9.366420      9.365154   1.000000   1.000000
  303        9.386678      9.386786   1.000000   1.000000
  304        9.413883      9.413194   1.000000   1.000000
  305        9.423233      9.422670   1.000000   1.000000
  306        9.427579      9.426777   1.000000   1.000000
  307        9.429817      9.429366   1.000000   1.000000
  308        9.480040      9.478119   1.000000   1.000000
  309        9.480041      9.478120   1.000000   1.000000
  310        9.509107      9.507228   1.000000   1.000000
  311        9.588469      9.588549   1.000000   1.000000
  312        9.589002      9.588962   1.000000   1.000000
  313        9.605593      9.603652   1.000000   1.000000
  314        9.611672      9.609703   1.000000   1.000000
  315        9.643957      9.642086   1.000000   1.000000
  316        9.668286      9.666255   1.000000   1.000000
  317        9.668287      9.666257   1.000000   1.000000
  318        9.710432      9.708091   1.000000   1.000000
  319        9.752744      9.751343   1.000000   1.000000
  320        9.752744      9.751343   1.000000   1.000000
  321        9.785357      9.785144   1.000000   1.000000
  322        9.821354      9.817831   0.991557   1.000000
  323        9.858790      9.858283   0.000000   0.000000
  324        9.861690      9.858669   0.000000   0.000000
  325       10.022381     10.022464   0.000000   0.000000
  326       10.061154     10.061044   0.000000   0.000000
  327       10.061155     10.061045   0.000000   0.000000
  328       10.110326     10.109164   0.000000   0.000000
  329       10.110326     10.109165   0.000000   0.000000
  330       10.266476     10.266459   0.000000   0.000000
  331       10.266477     10.266460   0.000000   0.000000
  332       10.313145     10.313165   0.000000   0.000000
  333       10.395214     10.395220   0.000000   0.000000
  334       10.395215     10.395222   0.000000   0.000000
  335       10.427707     10.427540   0.000000   0.000000
  336       10.526949     10.526891   0.000000   0.000000
  337       10.526952     10.526894   0.000000   0.000000
  338       10.596362     10.596054   0.000000   0.000000
  339       10.596366     10.596058   0.000000   0.000000
  340       10.648218     10.647855   0.000000   0.000000
  341       10.648222     10.647859   0.000000   0.000000
  342       10.760659     10.760472   0.000000   0.000000
  343       10.760664     10.760476   0.000000   0.000000
  344       10.822725     10.822763   0.000000   0.000000
  345       10.822732     10.822769   0.000000   0.000000
  346       10.842427     10.842459   0.000000   0.000000
  347       10.842433     10.842466   0.000000   0.000000
  348       10.867321     10.867243   0.000000   0.000000
  349       10.867326     10.867248   0.000000   0.000000
  350       10.873111     10.873037   0.000000   0.000000
  351       10.873118     10.873044   0.000000   0.000000
  352       10.881835     10.881670   0.000000   0.000000
  353       10.881841     10.881676   0.000000   0.000000
  354       10.974977     10.974786   0.000000   0.000000
  355       10.974983     10.974792   0.000000   0.000000
  356       11.010310     11.010086   0.000000   0.000000
  357       11.010314     11.010091   0.000000   0.000000
  358       11.014221     11.014339   0.000000   0.000000
  359       11.060890     11.060625   0.000000   0.000000
  360       11.060895     11.060631   0.000000   0.000000
  361       11.099150     11.098582   0.000000   0.000000
  362       11.099156     11.098587   0.000000   0.000000
  363       11.103434     11.102738   0.000000   0.000000
  364       11.103439     11.102744   0.000000   0.000000
  365       11.195230     11.195295   0.000000   0.000000
  366       11.203849     11.203660   0.000000   0.000000
  367       11.203852     11.203664   0.000000   0.000000
  368       11.211196     11.210752   0.000000   0.000000
  369       11.211201     11.210756   0.000000   0.000000
  370       11.363711     11.363520   0.000000   0.000000
  371       11.363714     11.363523   0.000000   0.000000
  372       11.415538     11.415372   0.000000   0.000000
  373       11.415541     11.415375   0.000000   0.000000
  374       11.431746     11.431763   0.000000   0.000000
  375       11.431748     11.431764   0.000000   0.000000
  376       11.469223     11.469286   0.000000   0.000000
  377       11.519785     11.519807   0.000000   0.000000
  378       11.519787     11.519809   0.000000   0.000000
  379       11.620788     11.620641   0.000000   0.000000
  380       11.620790     11.620643   0.000000   0.000000
  381       11.624311     11.624439   0.000000   0.000000
  382       11.624312     11.624440   0.000000   0.000000
  383       11.714192     11.714023   0.000000   0.000000
  384       11.714195     11.714026   0.000000   0.000000
  385       11.819559     11.818894   0.000000   0.000000
  386       11.819562     11.818898   0.000000   0.000000
  387       11.857533     11.857668   0.000000   0.000000
  388       11.863185     11.863266   0.000000   0.000000
  389       11.863187     11.863268   0.000000   0.000000
  390       12.095078     12.095134   0.000000   0.000000
  391       12.139942     12.140053   0.000000   0.000000
  392       12.139944     12.140057   0.000000   0.000000
  393       12.188879     12.188992   0.000000   0.000000
  394       12.188884     12.189026   0.000000   0.000000
  395       12.266289     12.265761   0.000000   0.000000
  396       12.334039     12.334140   0.000000   0.000000
  397       12.425219     12.425237   0.000000   0.000000
  398       12.425248     12.425431   0.000000   0.000000
  399       12.567978     12.568119   0.000000   0.000000
  400       12.568011     12.568216   0.000000   0.000000
  401       12.655079     12.655384   0.000000   0.000000
  402       12.655828     12.659512   0.000000   0.000000
  403       12.740913     12.741278   0.000000   0.000000
  404       12.805411     12.808099   0.000000   0.000000
  405       12.811271     12.813584   0.000000   0.000000
  406       12.886951     12.878499   0.000000   0.000000
  407       13.029995     13.036864   0.000000   0.000000
  408       13.047188     13.052090   0.000000   0.000000
  409       13.054457     13.075129   0.000000   0.000000
  410       13.090373     13.105184   0.000000   0.000000
  411       13.124193     13.123038   0.000000   0.000000
  412       13.144117     13.162628   0.000000   0.000000
  413       13.173604     13.173091   0.000000   0.000000
  414       13.185469     13.330346   0.000000   0.000000
  415       13.292329     13.721669   0.000000   0.000000
  416       13.479255     14.246010   0.000000   0.000000
 
  0.5000000E-01 -0.3469447E-17  0.0000000E+00  0.5000000E-02
    1      -47.545914    -47.545736   1.000000   1.000000
    2      -47.542110    -47.541932   1.000000   1.000000
    3      -47.517273    -47.517086   1.000000   1.000000
    4      -47.517201    -47.517015   1.000000   1.000000
    5      -47.412565    -47.412350   1.000000   1.000000
    6      -47.412476    -47.412261   1.000000   1.000000
    7      -47.357440    -47.357136   1.000000   1.000000
    8      -47.357433    -47.357128   1.000000   1.000000
    9      -47.263383    -47.262717   1.000000   1.000000
   10      -47.263335    -47.262669   1.000000   1.000000
   11      -47.237772    -47.236977   1.000000   1.000000
   12      -47.237735    -47.236940   1.000000   1.000000
   13      -47.162670    -47.161929   1.000000   1.000000
   14      -47.157628    -47.156887   1.000000   1.000000
   15      -23.824274    -23.824072   1.000000   1.000000
   16      -23.824133    -23.823931   1.000000   1.000000
   17      -23.820179    -23.820046   1.000000   1.000000
   18      -23.808745    -23.808546   1.000000   1.000000
   19      -23.808639    -23.808442   1.000000   1.000000
   20      -23.805655    -23.805513   1.000000   1.000000
   21      -23.787204    -23.787024   1.000000   1.000000
   22      -23.787106    -23.786926   1.000000   1.000000
   23      -23.784789    -23.784606   1.000000   1.000000
   24      -23.784454    -23.784270   1.000000   1.000000
   25      -23.778146    -23.777940   1.000000   1.000000
   26      -23.774548    -23.774352   1.000000   1.000000
   27      -23.690529    -23.690354   1.000000   1.000000
   28      -23.690450    -23.690275   1.000000   1.000000
   29      -23.690425    -23.690250   1.000000   1.000000
   30      -23.690346    -23.690171   1.000000   1.000000
   31      -23.665165    -23.664861   1.000000   1.000000
   32      -23.665082    -23.664779   1.000000   1.000000
   33      -23.636115    -23.635791   1.000000   1.000000
   34      -23.636101    -23.635776   1.000000   1.000000
   35      -23.636074    -23.635750   1.000000   1.000000
   36      -23.636059    -23.635735   1.000000   1.000000
   37      -23.602487    -23.602213   1.000000   1.000000
   38      -23.602476    -23.602202   1.000000   1.000000
   39      -23.550972    -23.550355   1.000000   1.000000
   40      -23.550945    -23.550327   1.000000   1.000000
   41      -23.550912    -23.550294   1.000000   1.000000
   42      -23.550884    -23.550267   1.000000   1.000000
   43      -23.512949    -23.512169   1.000000   1.000000
   44      -23.512942    -23.512162   1.000000   1.000000
   45      -23.512530    -23.511751   1.000000   1.000000
   46      -23.512524    -23.511744   1.000000   1.000000
   47      -23.497732    -23.496928   1.000000   1.000000
   48      -23.497715    -23.496911   1.000000   1.000000
   49      -23.478301    -23.477488   1.000000   1.000000
   50      -23.478281    -23.477468   1.000000   1.000000
   51      -23.442855    -23.442118   1.000000   1.000000
   52      -23.442749    -23.442013   1.000000   1.000000
   53      -23.430760    -23.429991   1.000000   1.000000
   54      -23.419585    -23.418848   1.000000   1.000000
   55      -23.419461    -23.418723   1.000000   1.000000
   56      -23.410536    -23.409766   1.000000   1.000000
   57        0.956356      0.956565   1.000000   1.000000
   58        1.189787      1.189997   1.000000   1.000000
   59        1.317593      1.317665   1.000000   1.000000
   60        1.633057      1.633158   1.000000   1.000000
   61        1.896035      1.896157   1.000000   1.000000
   62        2.406378      2.406500   1.000000   1.000000
   63        2.613777      2.613913   1.000000   1.000000
   64        3.350335      3.350436   1.000000   1.000000
   65        3.367993      3.368087   1.000000   1.000000
   66        4.205247      4.205264   1.000000   1.000000
   67        4.268215      4.268224   1.000000   1.000000
   68        4.867430      4.867337   1.000000   1.000000
   69        4.870164      4.870069   1.000000   1.000000
   70        5.066419      5.066368   1.000000   1.000000
   71        5.074196      5.074209   1.000000   1.000000
   72        5.085371      5.085402   1.000000   1.000000
   73        5.112277      5.112294   1.000000   1.000000
   74        5.115769      5.115787   1.000000   1.000000
   75        5.201386      5.201026   1.000000   1.000000
   76        5.245587      5.245557   1.000000   1.000000
   77        5.258531      5.258502   1.000000   1.000000
   78        5.267286      5.267213   1.000000   1.000000
   79        5.274085      5.274017   1.000000   1.000000
   80        5.381302      5.381019   1.000000   1.000000
   81        5.397789      5.397564   1.000000   1.000000
   82        5.411839      5.411331   1.000000   1.000000
   83        5.430729      5.430562   1.000000   1.000000
   84        5.445091      5.444942   1.000000   1.000000
   85        5.497176      5.496793   1.000000   1.000000
   86        5.510551      5.510174   1.000000   1.000000
   87        5.561234      5.560588   1.000000   1.000000
   88        5.604042      5.603764   1.000000   1.000000
   89        5.616377      5.615798   1.000000   1.000000
   90        5.623593      5.622895   1.000000   1.000000
   91        5.669078      5.668952   1.000000   1.000000
   92        5.675119      5.674944   1.000000   1.000000
   93        5.678556      5.678331   1.000000   1.000000
   94        5.700507      5.700072   1.000000   1.000000
   95        5.704081      5.703503   1.000000   1.000000