Automatically generated mesh
     121
Reciprocal lattice
    0.00000000000000    0.00000000000000    0.00000000000000             1
    0.05000000000000   -0.00000000000000    0.00000000000000             6
    0.10000000000000   -0.00000000000000    0.00000000000000             6
    0.15000000000000   -0.00000000000000    0.00000000000000             6
    0.20000000000000   -0.00000000000000    0.00000000000000             6
    0.25000000000000    0.00000000000000    0.00000000000000             6
    0.30000000000000   -0.00000000000000    0.00000000000000             6
    0.35000000000000   -0.00000000000000    0.00000000000000             6
    0.40000000000000   -0.00000000000000    0.00000000000000             6
    0.45000000000000   -0.00000000000000    0.00000000000000             6
    0.50000000000000    0.00000000000000    0.00000000000000             3
    0.05000000000000    0.05000000000000    0.00000000000000             6
    0.10000000000000    0.05000000000000    0.00000000000000            12
    0.15000000000000    0.05000000000000    0.00000000000000            12
    0.20000000000000    0.05000000000000    0.00000000000000            12
    0.25000000000000    0.05000000000000    0.00000000000000            12
    0.30000000000000    0.05000000000000    0.00000000000000            12
    0.35000000000000    0.05000000000000    0.00000000000000            12
    0.40000000000000    0.05000000000000    0.00000000000000            12
    0.45000000000000    0.05000000000000    0.00000000000000            12
    0.10000000000000    0.10000000000000    0.00000000000000             6
    0.15000000000000    0.10000000000000    0.00000000000000            12
    0.20000000000000    0.10000000000000    0.00000000000000            12
    0.25000000000000    0.10000000000000    0.00000000000000            12
    0.30000000000000    0.10000000000000    0.00000000000000            12
    0.35000000000000    0.10000000000000    0.00000000000000            12
    0.40000000000000    0.10000000000000    0.00000000000000            12
    0.45000000000000    0.10000000000000    0.00000000000000             6
    0.15000000000000    0.15000000000000    0.00000000000000             6
    0.20000000000000    0.15000000000000    0.00000000000000            12
    0.25000000000000    0.15000000000000    0.00000000000000            12
    0.30000000000000    0.15000000000000    0.00000000000000            12
    0.35000000000000    0.15000000000000    0.00000000000000            12
    0.40000000000000    0.15000000000000    0.00000000000000            12
    0.20000000000000    0.20000000000000    0.00000000000000             6
    0.25000000000000    0.20000000000000    0.00000000000000            12
    0.30000000000000    0.20000000000000    0.00000000000000            12
    0.35000000000000    0.20000000000000    0.00000000000000            12
    0.40000000000000    0.20000000000000    0.00000000000000             6
    0.25000000000000    0.25000000000000    0.00000000000000             6
    0.30000000000000    0.25000000000000    0.00000000000000            12
    0.35000000000000    0.25000000000000    0.00000000000000            12
    0.30000000000000    0.30000000000000    0.00000000000000             6
    0.35000000000000    0.30000000000000    0.00000000000000             6
    0.00000000000000    0.00000000000000    0.33333333333333             2
    0.05000000000000   -0.00000000000000    0.33333333333333             6
    0.10000000000000   -0.00000000000000    0.33333333333333             6
    0.15000000000000   -0.00000000000000    0.33333333333333             6
    0.20000000000000   -0.00000000000000    0.33333333333333             6
    0.25000000000000    0.00000000000000    0.33333333333333             6
    0.30000000000000   -0.00000000000000    0.33333333333333             6
    0.35000000000000   -0.00000000000000    0.33333333333333             6
    0.40000000000000   -0.00000000000000    0.33333333333333             6
    0.45000000000000   -0.00000000000000    0.33333333333333             6
    0.50000000000000    0.00000000000000    0.33333333333333             6
   -0.45000000000000    0.00000000000000    0.33333333333333             6
   -0.40000000000000    0.00000000000000    0.33333333333333             6
   -0.35000000000000    0.00000000000000    0.33333333333333             6
   -0.30000000000000    0.00000000000000    0.33333333333333             6
   -0.25000000000000    0.00000000000000    0.33333333333333             6
   -0.20000000000000    0.00000000000000    0.33333333333333             6
   -0.15000000000000    0.00000000000000    0.33333333333333             6
   -0.10000000000000    0.00000000000000    0.33333333333333             6
   -0.05000000000000    0.00000000000000    0.33333333333333             6
    0.05000000000000    0.05000000000000    0.33333333333333            12
    0.10000000000000    0.05000000000000    0.33333333333333            12
    0.15000000000000    0.05000000000000    0.33333333333333            12
    0.20000000000000    0.05000000000000    0.33333333333333            12
    0.25000000000000    0.05000000000000    0.33333333333333            12
    0.30000000000000    0.05000000000000    0.33333333333333            12
    0.35000000000000    0.05000000000000    0.33333333333333            12
    0.40000000000000    0.05000000000000    0.33333333333333            12
    0.45000000000000    0.05000000000000    0.33333333333333            12
    0.50000000000000    0.05000000000000    0.33333333333333            12
   -0.45000000000000    0.05000000000000    0.33333333333333            12
   -0.40000000000000    0.05000000000000    0.33333333333333            12
   -0.35000000000000    0.05000000000000    0.33333333333333            12
   -0.30000000000000    0.05000000000000    0.33333333333333            12
   -0.25000000000000    0.05000000000000    0.33333333333333            12
   -0.20000000000000    0.05000000000000    0.33333333333333            12
   -0.15000000000000    0.05000000000000    0.33333333333333            12
    0.10000000000000    0.10000000000000    0.33333333333333            12
    0.15000000000000    0.10000000000000    0.33333333333333            12
    0.20000000000000    0.10000000000000    0.33333333333333            12
    0.25000000000000    0.10000000000000    0.33333333333333            12
    0.30000000000000    0.10000000000000    0.33333333333333            12
    0.35000000000000    0.10000000000000    0.33333333333333            12
    0.40000000000000    0.10000000000000    0.33333333333333            12
    0.45000000000000    0.10000000000000    0.33333333333333            12
    0.50000000000000    0.10000000000000    0.33333333333333            12
   -0.45000000000000    0.10000000000000    0.33333333333333            12
   -0.40000000000000    0.10000000000000    0.33333333333333            12
   -0.35000000000000    0.10000000000000    0.33333333333333            12
   -0.30000000000000    0.10000000000000    0.33333333333333            12
   -0.25000000000000    0.10000000000000    0.33333333333333            12
    0.15000000000000    0.15000000000000    0.33333333333333            12
    0.20000000000000    0.15000000000000    0.33333333333333            12
    0.25000000000000    0.15000000000000    0.33333333333333            12
    0.30000000000000    0.15000000000000    0.33333333333333            12
    0.35000000000000    0.15000000000000    0.33333333333333            12
    0.40000000000000    0.15000000000000    0.33333333333333            12
    0.45000000000000    0.15000000000000    0.33333333333333            12
    0.50000000000000    0.15000000000000    0.33333333333333            12
   -0.45000000000000    0.15000000000000    0.33333333333333            12
   -0.40000000000000    0.15000000000000    0.33333333333333            12
   -0.35000000000000    0.15000000000000    0.33333333333333            12
    0.20000000000000    0.20000000000000    0.33333333333333            12
    0.25000000000000    0.20000000000000    0.33333333333333            12
    0.30000000000000    0.20000000000000    0.33333333333333            12
    0.35000000000000    0.20000000000000    0.33333333333333            12
    0.40000000000000    0.20000000000000    0.33333333333333            12
    0.45000000000000    0.20000000000000    0.33333333333333            12
    0.50000000000000    0.20000000000000    0.33333333333333            12
   -0.45000000000000    0.20000000000000    0.33333333333333            12
    0.25000000000000    0.25000000000000    0.33333333333333            12
    0.30000000000000    0.25000000000000    0.33333333333333            12
    0.35000000000000    0.25000000000000    0.33333333333333            12
    0.40000000000000    0.25000000000000    0.33333333333333            12
    0.45000000000000    0.25000000000000    0.33333333333333            12
    0.30000000000000    0.30000000000000    0.33333333333333            12
    0.35000000000000    0.30000000000000    0.33333333333333            12
Tetrahedra
      1714    0.00013888888889
         4         2         2        12        64
         4         1         2         2        64
         4         1         2        45        64
         4         2        12        64        65
         8         2        46        64        65
         8         2        45        46        64
         8         3        12        13        65
         8         2         3        12        65
         4         2         3        46        65
         4         3        13        65        66
         4         3        47        65        66
         4         3        46        47        65
         4         4        13        14        66
         4         3         4        13        66
         4         3         4        47        66
         4         4        14        66        67
         4         4        48        66        67
         4         4        47        48        66
         4         5        14        15        67
         4         4         5        14        67
         4         4         5        48        67
         4         5        15        67        68
         4         5        49        67        68
         4         5        48        49        67
         4         6        15        16        68
         4         5         6        15        68
         4         5         6        49        68
         4         6        16        68        69
         4         6        50        68        69
         4         6        49        50        68
         4         7        16        17        69
         4         6         7        16        69
         4         6         7        50        69
         4         7        17        69        70
         4         7        51        69        70
         4         7        50        51        69
         4         8        17        18        70
         4         7         8        17        70
         4         7         8        51        70
         4         8        18        70        71
         4         8        52        70        71
         4         8        51        52        70
         4         9        18        19        71
         4         8         9        18        71
         4         8         9        52        71
         4         9        19        71        72
         4         9        53        71        72
         4         9        52        53        71
         4        10        19        20        72
         4         9        10        19        72
         4         9        10        53        72
         4        10        20        72        73
         4        10        54        72        73
         4        10        53        54        72
         4        11        20        20        73
         4        10        11        20        73
         4        10        11        54        73
         4        11        20        73        74
         4        11        55        73        74
         4        11        54        55        73
         4        10        19        20        74
         4        10        11        20        74
         4        10        11        55        74
         4        10        19        74        75
         4        10        56        74        75
         4        10        55        56        74
         4         9        18        19        75
         4         9        10        19        75
         4         9        10        56        75
         4         9        18        75        76
         4         9        57        75        76
         4         9        56        57        75
         4         8        17        18        76
         4         8         9        18        76
         4         8         9        57        76
         4         8        17        76        77
         4         8        58        76        77
         4         8        57        58        76
         4         7        16        17        77
         4         7         8        17        77
         4         7         8        58        77
         4         7        16        77        78
         4         7        59        77        78
         4         7        58        59        77
         4         6        15        16        78
         4         6         7        16        78
         4         6         7        59        78
         4         6        15        78        79
         4         6        60        78        79
         4         6        59        60        78
         4         5        14        15        79
         4         5         6        15        79
         4         5         6        60        79
         4         5        14        79        80
         4         5        61        79        80
         4         5        60        61        79
         4         4        13        14        80
         4         4         5        14        80
         4         4         5        61        80
         4         4        13        80        81
         4         4        62        80        81
         4         4        61        62        80
         4         3        12        13        81
         4         3         4        13        81
         4         3         4        62        81
         4         3        12        65        81
         4         3        63        65        81
         4         3        62        63        81
         4         2         2        12        65
         4         2         3        63        65
         4         2         2        46        65
         4         2        63        64        65
         4         1         2         2        46
         4         1         2        46        64
         4         1        45        46        64
         4         3        12        13        63
         4         2         3        12        63
         4         2        12        63        64
         4        12        13        63        81
         4        12        63        65        81
         4        12        63        64        65
         4        13        13        21        81
         4        12        13        13        81
         4        12        13        65        81
         4        13        21        81        82
         8        13        66        81        82
         8        13        65        66        81
         8        14        21        22        82
         8        13        14        21        82
         4        13        14        66        82
         4        14        22        82        83
         4        14        67        82        83
         4        14        66        67        82
         4        15        22        23        83
         4        14        15        22        83
         4        14        15        67        83
         4        15        23        83        84
         4        15        68        83        84
         4        15        67        68        83
         4        16        23        24        84
         4        15        16        23        84
         4        15        16        68        84
         4        16        24        84        85
         4        16        69        84        85
         4        16        68        69        84
         4        17        24        25        85
         4        16        17        24        85
         4        16        17        69        85
         4        17        25        85        86
         4        17        70        85        86
         4        17        69        70        85
         4        18        25        26        86
         4        17        18        25        86
         4        17        18        70        86
         4        18        26        86        87
         4        18        71        86        87
         4        18        70        71        86
         4        19        26        27        87
         4        18        19        26        87
         4        18        19        71        87
         4        19        27        87        88
         4        19        72        87        88
         4        19        71        72        87
         4        20        27        28        88
         4        19        20        27        88
         4        19        20        72        88
         4        20        28        88        89
         4        20        73        88        89
         4        20        72        73        88
         8        20        27        28        89
         4        20        20        28        89
         4        20        20        73        89
         4        20        27        89        90
         4        20        74        89        90
         8        20        73        74        89
         4        19        26        27        90
         4        19        20        27        90
         4        19        20        74        90
         4        19        26        90        91
         4        19        75        90        91
         4        19        74        75        90
         4        18        25        26        91
         4        18        19        26        91
         4        18        19        75        91
         4        18        25        91        92
         4        18        76        91        92
         4        18        75        76        91
         4        17        24        25        92
         4        17        18        25        92
         4        17        18        76        92
         4        17        24        92        93
         4        17        77        92        93
         4        17        76        77        92
         4        16        23        24        93
         4        16        17        24        93
         4        16        17        77        93
         4        16        23        93        94
         4        16        78        93        94
         4        16        77        78        93
         4        15        22        23        94
         4        15        16        23        94
         4        15        16        78        94
         4        15        22        94        95
         4        15        79        94        95
         4        15        78        79        94
         4        14        21        22        95
         4        14        15        22        95
         4        14        15        79        95
         4        14        21        82        95
         4        14        80        82        95
         4        14        79        80        95
         4        13        13        21        82
         4        13        14        80        82
         4        13        13        66        82
         4        13        80        81        82
         4         3        12        13        66
         4        12        13        13        66
         4        12        13        66        81
         4         3        12        47        66
         4        12        47        65        66
         4        12        65        66        81
         4         2         3        12        47
         4         2        12        47        65
         4         2        46        47        65
         4         4        13        14        62
         4         3         4        13        62
         4         3        13        62        63
         4        13        14        62        80
         4        13        62        80        81
         4        13        62        63        81
         4        14        21        22        80
         4        13        14        21        80
         4        13        21        80        81
         4        21        22        80        95
         4        21        80        82        95
         4        21        80        81        82
         4        22        22        29        95
         4        21        22        22        95
         4        21        22        82        95
         4        22        29        95        96
         8        22        83        95        96
         8        22        82        83        95
         8        23        29        30        96
         8        22        23        29        96
         4        22        23        83        96
         4        23        30        96        97
         4        23        84        96        97
         4        23        83        84        96
         4        24        30        31        97
         4        23        24        30        97
         4        23        24        84        97
         4        24        31        97        98
         4        24        85        97        98
         4        24        84        85        97
         4        25        31        32        98
         4        24        25        31        98
         4        24        25        85        98
         4        25        32        98        99
         4        25        86        98        99
         4        25        85        86        98
         4        26        32        33        99
         4        25        26        32        99
         4        25        26        86        99
         4        26        33        99       100
         4        26        87        99       100
         4        26        86        87        99
         4        27        33        34       100
         4        26        27        33       100
         4        26        27        87       100
         4        27        34       100       101
         4        27        88       100       101
         4        27        87        88       100
         4        28        34        34       101
         4        27        28        34       101
         4        27        28        88       101
         4        28        34       101       102
         4        28        89       101       102
         4        28        88        89       101
         4        27        33        34       102
         4        27        28        34       102
         4        27        28        89       102
         4        27        33       102       103
         4        27        90       102       103
         4        27        89        90       102
         4        26        32        33       103
         4        26        27        33       103
         4        26        27        90       103
         4        26        32       103       104
         4        26        91       103       104
         4        26        90        91       103
         4        25        31        32       104
         4        25        26        32       104
         4        25        26        91       104
         4        25        31       104       105
         4        25        92       104       105
         4        25        91        92       104
         4        24        30        31       105
         4        24        25        31       105
         4        24        25        92       105
         4        24        30       105       106
         4        24        93       105       106
         4        24        92        93       105
         4        23        29        30       106
         4        23        24        30       106
         4        23        24        93       106
         4        23        29        96       106
         4        23        94        96       106
         4        23        93        94       106
         4        22        22        29        96
         4        22        23        94        96
         4        22        22        83        96
         4        22        94        95        96
         4        14        21        22        83
         4        21        22        22        83
         4        21        22        83        95
         4        14        21        67        83
         4        21        67        82        83
         4        21        82        83        95
         4         4        13        14        67
         4        13        14        21        67
         4        13        21        67        82
         4         4        13        48        67
         4        13        48        66        67
         4        13        66        67        82
         4         3         4        13        48
         4         3        13        48        66
         4         3        47        48        66
         4         5        14        15        61
         4         4         5        14        61
         4         4        14        61        62
         4        14        15        61        79
         4        14        61        79        80
         4        14        61        62        80
         4        15        22        23        79
         4        14        15        22        79
         4        14        22        79        80
         4        22        23        79        94
         4        22        79        94        95
         4        22        79        80        95
         4        23        29        30        94
         4        22        23        29        94
         4        22        29        94        95
         4        29        30        94       106
         4        29        94        96       106
         4        29        94        95        96
         4        30        30        35       106
         4        29        30        30       106
         4        29        30        96       106
         4        30        35       106       107
         8        30        97       106       107
         8        30        96        97       106
         8        31        35        36       107
         8        30        31        35       107
         4        30        31        97       107
         4        31        36       107       108
         4        31        98       107       108
         4        31        97        98       107
         4        32        36        37       108
         4        31        32        36       108
         4        31        32        98       108
         4        32        37       108       109
         4        32        99       108       109
         4        32        98        99       108
         4        33        37        38       109
         4        32        33        37       109
         4        32        33        99       109
         4        33        38       109       110
         4        33       100       109       110
         4        33        99       100       109
         4        34        38        39       110
         4        33        34        38       110
         4        33        34       100       110
         4        34        39       110       111
         4        34       101       110       111
         4        34       100       101       110
         8        34        38        39       111
         4        34        34        39       111
         4        34        34       101       111
         4        34        38       111       112
         4        34       102       111       112
         8        34       101       102       111
         4        33        37        38       112
         4        33        34        38       112
         4        33        34       102       112
         4        33        37       112       113
         4        33       103       112       113
         4        33       102       103       112
         4        32        36        37       113
         4        32        33        37       113
         4        32        33       103       113
         4        32        36       113       114
         4        32       104       113       114
         4        32       103       104       113
         4        31        35        36       114
         4        31        32        36       114
         4        31        32       104       114
         4        31        35       107       114
         4        31       105       107       114
         4        31       104       105       114
         4        30        30        35       107
         4        30        31       105       107
         4        30        30        97       107
         4        30       105       106       107
         4        23        29        30        97
         4        29        30        30        97
         4        29        30        97       106
         4        23        29        84        97
         4        29        84        96        97