       N       E                     dE             d eps       ncg     rms          rms(c)
RMM:   1     0.183174018867E+04    0.18317E+04   -0.25255E+05100672   0.170E+03
RMM:   2     0.810791239962E+01   -0.18236E+04   -0.41796E+04100672   0.361E+02
RMM:   3    -0.152074075831E+03   -0.16018E+03   -0.47086E+03100672   0.173E+02
RMM:   4    -0.329085744623E+03   -0.17701E+03   -0.10484E+03100672   0.845E+01
RMM:   5    -0.377871475060E+03   -0.48786E+02   -0.44497E+02100672   0.508E+01
RMM:   6    -0.404538347606E+03   -0.26667E+02   -0.26350E+02100672   0.399E+01
RMM:   7    -0.416887139460E+03   -0.12349E+02   -0.25926E+02100672   0.358E+01
RMM:   8    -0.429936469648E+03   -0.13049E+02   -0.17789E+02100672   0.291E+01
RMM:   9    -0.439502480704E+03   -0.95660E+01   -0.41835E+02356842   0.327E+01
RMM:  10    -0.451186183082E+03   -0.11684E+02   -0.15629E+02401716   0.102E+01
RMM:  11    -0.454542991232E+03   -0.33568E+01   -0.46324E+01401740   0.612E+00
RMM:  12    -0.456224312559E+03   -0.16813E+01   -0.22651E+01401648   0.409E+00    0.836E+01
RMM:  13    -0.455408585690E+03    0.81573E+00   -0.82715E+02233235   0.739E+01    0.738E+01
RMM:  14    -0.523519142443E+03   -0.68111E+02   -0.53044E+02255888   0.460E+01    0.166E+02
RMM:  15    -0.113991005049E+04   -0.61639E+03   -0.67874E+02366125   0.311E+01    0.228E+02
RMM:  16    -0.615277056683E+03    0.52463E+03   -0.16550E+02313110   0.206E+01    0.170E+02
RMM:  17    -0.439047685772E+03    0.17623E+03   -0.89703E+01288277   0.160E+01    0.545E+01
RMM:  18    -0.457790465971E+03   -0.18743E+02   -0.12573E+02262947   0.210E+01    0.893E+01
RMM:  19    -0.438576934978E+03    0.19214E+02   -0.69898E+01256971   0.158E+01    0.798E+01
RMM:  20    -0.413084221722E+03    0.25493E+02   -0.41550E+01255451   0.123E+01    0.283E+01
RMM:  21    -0.406511282650E+03    0.65729E+01   -0.15673E+01254820   0.774E+00    0.228E+01
RMM:  22    -0.404952208296E+03    0.15591E+01   -0.27905E+00288587   0.249E+00    0.194E+01
RMM:  23    -0.404992534764E+03   -0.40326E-01   -0.85166E-01387144   0.641E-01    0.195E+01
RMM:  24    -0.404957302747E+03    0.35232E-01   -0.11459E+00302936   0.155E+00    0.187E+01
RMM:  25    -0.405060923456E+03   -0.10362E+00   -0.16184E+00276143   0.223E+00    0.164E+01
RMM:  26    -0.404629517801E+03    0.43141E+00   -0.20880E+00266651   0.272E+00    0.153E+01
RMM:  27    -0.406426508072E+03   -0.17970E+01   -0.38775E+00288874   0.337E+00    0.158E+01
RMM:  28    -0.415492602493E+03   -0.90661E+01   -0.51502E+00287272   0.402E+00    0.466E+01
RMM:  29    -0.412537329512E+03    0.29553E+01   -0.25625E+00261775   0.304E+00    0.329E+01
RMM:  30    -0.409769885341E+03    0.27674E+01   -0.18677E+00247506   0.264E+00    0.189E+01
RMM:  31    -0.409806282991E+03   -0.36398E-01   -0.21915E+00259913   0.249E+00    0.133E+01
RMM:  32    -0.409258314323E+03    0.54797E+00   -0.13264E+00281707   0.198E+00    0.108E+01
RMM:  33    -0.409834142013E+03   -0.57583E+00   -0.49775E-01297345   0.120E+00    0.104E+01
RMM:  34    -0.410420221927E+03   -0.58608E+00   -0.86668E-01273842   0.163E+00    0.976E+00
RMM:  35    -0.410784353640E+03   -0.36413E+00   -0.10801E+00257502   0.184E+00    0.904E+00
RMM:  36    -0.410988902175E+03   -0.20455E+00   -0.79587E-01280387   0.144E+00    0.806E+00
RMM:  37    -0.410925237269E+03    0.63665E-01   -0.33141E-01289830   0.893E-01    0.729E+00
RMM:  38    -0.410818862548E+03    0.10637E+00   -0.20295E-01291101   0.718E-01    0.595E+00
RMM:  39    -0.410729959109E+03    0.88903E-01   -0.93108E-02311975   0.468E-01    0.500E+00
RMM:  40    -0.410603959978E+03    0.12600E+00   -0.80187E-02312168   0.435E-01    0.384E+00
RMM:  41    -0.410518313363E+03    0.85647E-01   -0.57362E-02318347   0.348E-01    0.299E+00
RMM:  42    -0.410424084954E+03    0.94228E-01   -0.52982E-02314775   0.342E-01    0.205E+00
RMM:  43    -0.410356066553E+03    0.68018E-01   -0.31615E-02320709   0.238E-01    0.131E+00
RMM:  44    -0.410340694919E+03    0.15372E-01   -0.12066E-02325054   0.111E-01    0.109E+00
RMM:  45    -0.410324047270E+03    0.16648E-01   -0.12733E-02304203   0.136E-01    0.886E-01
RMM:  46    -0.410315492221E+03    0.85550E-02   -0.95695E-03302179   0.105E-01    0.523E-01
RMM:  47    -0.410314258580E+03    0.12336E-02   -0.84172E-03303454   0.946E-02    0.267E-01
RMM:  48    -0.410314114307E+03    0.14427E-03   -0.57003E-03307075   0.553E-02    0.184E-01
RMM:  49    -0.410313828450E+03    0.28586E-03   -0.47135E-03270286   0.406E-02    0.988E-02
RMM:  50    -0.410314305562E+03   -0.47711E-03   -0.39256E-03185605   0.320E-02    0.120E-01
RMM:  51    -0.410314850864E+03   -0.54530E-03   -0.35386E-03150886   0.287E-02    0.121E-01
RMM:  52    -0.410314998444E+03   -0.14758E-03   -0.30349E-03129515   0.174E-02    0.958E-02
RMM:  53    -0.410315169549E+03   -0.17111E-03   -0.26562E-03126792   0.115E-02    0.734E-02
RMM:  54    -0.410315304489E+03   -0.13494E-03   -0.24240E-03130269   0.121E-02    0.344E-02
RMM:  55    -0.410315465989E+03   -0.16150E-03   -0.21672E-03115540   0.816E-03    0.205E-02
RMM:  56    -0.410315650596E+03   -0.18461E-03   -0.20122E-03110869   0.688E-03    0.167E-02
RMM:  57    -0.410315794400E+03   -0.14380E-03   -0.17708E-03 88246   0.531E-03    0.108E-02
RMM:  58    -0.410315947083E+03   -0.15268E-03   -0.16360E-03 87800   0.543E-03    0.947E-03
RMM:  59    -0.410316078402E+03   -0.13132E-03   -0.15094E-03 44981   0.358E-03    0.353E-03
RMM:  60    -0.410316206156E+03   -0.12775E-03   -0.13909E-03 38359   0.346E-03    0.378E-03
RMM:  61    -0.410316324056E+03   -0.11790E-03   -0.12753E-03 29735   0.334E-03    0.446E-03
RMM:  62    -0.410316431290E+03   -0.10723E-03   -0.11673E-03 31023   0.347E-03    0.547E-03
RMM:  63    -0.410316533192E+03   -0.10190E-03   -0.11039E-03 27090   0.334E-03    0.764E-03
RMM:  64    -0.410316625653E+03   -0.92461E-04   -0.10135E-03 24933   0.331E-03    0.871E-03
RMM:  65    -0.410316711960E+03   -0.86307E-04   -0.94400E-04 24843   0.333E-03
   1 F= -.41031671E+03 E0= -.41031671E+03  d E =0.000000E+00  mag=    -0.0334
