 vasp.5.4.1 05Feb16 (build Jan 17 2017 23:57:57) complex                        
  
 executed on           IFC91_ompi date 2019.08.24  00:07:30
 running on   20 total cores
 distrk:  each k-point on   20 cores,    1 groups
 distr:  one band on NCORES_PER_BAND=   5 cores,    4 groups


--------------------------------------------------------------------------------------------------------


 INCAR:
 POTCAR:    PAW_PBE Al 04Jan2001                  
 POTCAR:    PAW_PBE Ni 02Aug2007                  
 POTCAR:    PAW_PBE Ti_sv 26Sep2005               
 POTCAR:    PAW_PBE Al 04Jan2001                  
   VRHFIN =Al: s2p1                                                             
   LEXCH  = PE                                                                  
   EATOM  =    53.5387 eV,    3.9350 Ry                                         
                                                                                
   TITEL  = PAW_PBE Al 04Jan2001                                                
   LULTRA =        F    use ultrasoft PP ?                                      
   IUNSCR =        1    unscreen: 0-lin 1-nonlin 2-no                           
   RPACOR =    1.500    partial core radius                                     
   POMASS =   26.981; ZVAL   =    3.000    mass and valenz                      
   RCORE  =    1.900    outmost cutoff radius                                   
   RWIGS  =    2.650; RWIGS  =    1.402    wigner-seitz radius (au A)           
   ENMAX  =  240.300; ENMIN  =  180.225 eV                                      
   ICORE  =        2    local potential                                         
   LCOR   =        T    correct aug charges                                     
   LPAW   =        T    paw PP                                                  
   EAUG   =  291.052                                                            
   DEXC   =    0.000                                                            
   RMAX   =    1.939    core radius for proj-oper                               
   RAUG   =    1.300    factor for augmentation sphere                          
   RDEP   =    1.966    radius for radial grids                                 
   RDEPT  =    1.856    core radius for aug-charge                              
                                                                                
   Atomic configuration                                                         
    6 entries                                                                   
     n  l   j            E        occ.                                          
     1  0  0.50     -1511.1048   2.0000                                         
     2  0  0.50      -108.1629   2.0000                                         
     2  1  1.50       -69.6402   6.0000                                         
     3  0  0.50        -7.7528   2.0000                                         
     3  1  1.50        -2.7121   1.0000                                         
     3  2  2.50        -2.7212   0.0000                                         
   Description                                                                  
     l       E           TYP  RCUT    TYP  RCUT                                 
     0     -7.7528455     23  1.900                                             
     0     -3.3096929     23  1.900                                             
     1     -2.7120682     23  1.900                                             
     1     13.6058260     23  1.900                                             
     2     -2.7211652      7  1.900                                             
  local pseudopotential read in
  partial core-charges read in
  partial kinetic energy density read in
  atomic valenz-charges read in
  non local Contribution for L=           0  read in
    real space projection operators read in
  non local Contribution for L=           0  read in
    real space projection operators read in
  non local Contribution for L=           1  read in
    real space projection operators read in
  non local Contribution for L=           1  read in
    real space projection operators read in
    PAW grid and wavefunctions read in
 
   number of l-projection  operators is LMAX  =           4
   number of lm-projection operators is LMMAX =           8
 
 POTCAR:    PAW_PBE Ni 02Aug2007                  
   VRHFIN =Ni:                                                                  
   LEXCH  = PE                                                                  
   EATOM  =  1077.6739 eV,   79.2068 Ry                                         
                                                                                
   TITEL  = PAW_PBE Ni 02Aug2007                                                
   LULTRA =        F    use ultrasoft PP ?                                      
   IUNSCR =        1    unscreen: 0-lin 1-nonlin 2-no                           
   RPACOR =    2.000    partial core radius                                     
   POMASS =   58.690; ZVAL   =   10.000    mass and valenz                      
   RCORE  =    2.300    outmost cutoff radius                                   
   RWIGS  =    2.430; RWIGS  =    1.286    wigner-seitz radius (au A)           
   ENMAX  =  269.532; ENMIN  =  202.149 eV                                      
   RCLOC  =    1.201    cutoff for local pot                                    
   LCOR   =        T    correct aug charges                                     
   LPAW   =        T    paw PP                                                  
   EAUG   =  544.565                                                            
   DEXC   =    0.000                                                            
   RMAX   =    2.357    core radius for proj-oper                               
   RAUG   =    1.300    factor for augmentation sphere                          
   RDEP   =    2.390    radius for radial grids                                 
   RDEPT  =    1.838    core radius for aug-charge                              
                                                                                
   Atomic configuration                                                         
    9 entries                                                                   
     n  l   j            E        occ.                                          
     1  0  0.50     -8206.4253   2.0000                                         
     2  0  0.50      -976.1748   2.0000                                         
     2  1  1.50      -839.0571   6.0000                                         
     3  0  0.50      -105.9991   2.0000                                         
     3  1  1.50       -66.4603   6.0000                                         
     3  2  2.50        -4.6458   9.0000                                         
     4  0  0.50        -4.4926   1.0000                                         
     4  1  1.50        -4.0817   0.0000                                         
     4  3  2.50        -1.3606   0.0000                                         
   Description                                                                  
     l       E           TYP  RCUT    TYP  RCUT                                 
     2     -4.6457903     23  2.300                                             
     2     -6.0063729     23  2.300                                             
     0     -4.4925590     23  2.300                                             
     0      5.0102601     23  2.300                                             
     1     -2.7211652     23  2.300                                             
     1     16.5183231     23  2.300                                             
  local pseudopotential read in
  partial core-charges read in
  partial kinetic energy density read in
  atomic valenz-charges read in
  non local Contribution for L=           2  read in
    real space projection operators read in
  non local Contribution for L=           2  read in
    real space projection operators read in
  non local Contribution for L=           0  read in
    real space projection operators read in
  non local Contribution for L=           0  read in
    real space projection operators read in
  non local Contribution for L=           1  read in
    real space projection operators read in
  non local Contribution for L=           1  read in
    real space projection operators read in
    PAW grid and wavefunctions read in
 
   number of l-projection  operators is LMAX  =           6
   number of lm-projection operators is LMMAX =          18
 
 POTCAR:    PAW_PBE Ti_sv 26Sep2005               
   VRHFIN =Ti: 3p4s3d                                                           
   LEXCH  = PE                                                                  
   EATOM  =  1588.0892 eV,  116.7213 Ry                                         
                                                                                
   TITEL  = PAW_PBE Ti_sv 26Sep2005                                             
   LULTRA =        F    use ultrasoft PP ?                                      
   IUNSCR =        1    unscreen: 0-lin 1-nonlin 2-no                           
   RPACOR =    2.000    partial core radius                                     
   POMASS =   47.880; ZVAL   =   12.000    mass and valenz                      
   RCORE  =    2.300    outmost cutoff radius                                   
   RWIGS  =    2.300; RWIGS  =    1.217    wigner-seitz radius (au A)           
   ENMAX  =  274.610; ENMIN  =  205.957 eV                                      
   ICORE  =        3    local potential                                         
   LCOR   =        T    correct aug charges                                     
   LPAW   =        T    paw PP                                                  
   EAUG   =  482.848                                                            
   RMAX   =    2.348    core radius for proj-oper                               
   RAUG   =    1.300    factor for augmentation sphere                          
   RDEP   =    2.381    radius for radial grids                                 
   RDEPT  =    1.930    core radius for aug-charge                              
                                                                                
   Atomic configuration                                                         
    8 entries                                                                   
     n  l   j            E        occ.                                          
     1  0  0.50     -4865.3608   2.0000                                         
     2  0  0.50      -533.1368   2.0000                                         
     2  1  1.50      -440.5031   6.0000                                         
     3  0  0.50       -59.3186   2.0000                                         
     4  0  0.50        -3.7291   1.0000                                         
     3  1  1.50       -35.7012   6.0000                                         
     3  2  2.50        -1.9157   3.0000                                         
     4  3  2.50        -1.3606   0.0000                                         
   Description                                                                  
     l       E           TYP  RCUT    TYP  RCUT                                 
     0    -59.3185931     23  1.800                                             
     0     -3.7290822     23  2.300                                             
     1    -35.7012045     23  2.300                                             
     1     -1.3605826     23  2.300                                             
     2     -1.9156920     23  2.300                                             
     2     -0.0236318     23  2.300                                             
     3     -1.3605826     23  2.300                                             
  local pseudopotential read in
  partial core-charges read in
  partial kinetic energy density read in
  atomic valenz-charges read in
  non local Contribution for L=           0  read in
    real space projection operators read in
  non local Contribution for L=           0  read in
    real space projection operators read in
  non local Contribution for L=           1  read in
    real space projection operators read in
  non local Contribution for L=           1  read in
    real space projection operators read in
  non local Contribution for L=           2  read in
    real space projection operators read in
  non local Contribution for L=           2  read in
    real space projection operators read in
    PAW grid and wavefunctions read in
 
   number of l-projection  operators is LMAX  =           6
   number of lm-projection operators is LMMAX =          18
 

 ----------------------------------------------------------------------------- 
|                                                                             |
|  ADVICE TO THIS USER RUNNING 'VASP/VAMP'   (HEAR YOUR MASTER'S VOICE ...):  |
|                                                                             |
|      You have a (more or less) 'large supercell' and for larger cells       |
|      it might be more efficient to use real space projection opertators     |
|      So try LREAL= Auto  in the INCAR   file.                               |
|      Mind: At the moment your POTCAR file does not contain real space       |
|       projectors, and has to be modified,  BUT if you                       |
|      want to do an extremely  accurate calculation you might also keep the  |
|      reciprocal projection scheme          (i.e. LREAL=.FALSE.)             |
|                                                                             |
 ----------------------------------------------------------------------------- 

  PAW_PBE Al 04Jan2001                  :
 energy of atom  1       EATOM=  -53.5387
 kinetic energy error for atom=    0.0005 (will be added to EATOM!!)
  PAW_PBE Ni 02Aug2007                  :
 energy of atom  2       EATOM=-1077.6739
 kinetic energy error for atom=    0.0101 (will be added to EATOM!!)
  PAW_PBE Ti_sv 26Sep2005               :
 energy of atom  3       EATOM=-1588.0892
 kinetic energy error for atom=    0.0139 (will be added to EATOM!!)
 
 
 POSCAR: SCEL2_1_1_2_0_0_0/9398                  
  positions in direct lattice
  velocities in cartesian coordinates
 exchange correlation table for  LEXCH =        8
   RHO(1)=    0.500       N(1)  =     2000
   RHO(2)=  100.500       N(2)  =     4000
 


--------------------------------------------------------------------------------------------------------


 ion  position               nearest neighbor table
   1  0.333  0.667  0.938-  39 2.53  37 2.53  35 2.53  33 2.55  33 2.55  31 2.55  29 2.55  29 2.55
                            31 2.55  25 2.55  27 2.55  23 2.55
   2  0.333  0.667  0.125-  43 2.53  45 2.53  41 2.53  20 2.55  20 2.55  47 2.55  49 2.55  49 2.55
                            47 2.55  14 2.55  16 2.55  18 2.55
   3  0.172  0.344  0.750-   7 2.47   9 2.47  56 2.51  17 2.53  13 2.53   5 2.53  21 2.53  58 2.55
                            58 2.55  60 2.59   9 2.63   7 2.63
   4  0.495  0.990  0.313-  11 2.47   6 2.47  61 2.51  24 2.53  26 2.53  10 2.53   8 2.53  59 2.55
                            59 2.55  57 2.59   6 2.63  11 2.63
   5  0.495  0.505  0.813-  21 2.46  19 2.46  58 2.51   3 2.53   7 2.53  23 2.54  27 2.54  60 2.55
                            60 2.55  62 2.55  21 2.63  19 2.63
   6  0.495  0.505  0.313-  11 2.47   4 2.47  61 2.51  22 2.53  26 2.53  12 2.53   8 2.53  59 2.55
                            59 2.55  57 2.59  11 2.63   4 2.63
   7  0.656  0.828  0.750-   9 2.47   3 2.47  56 2.51  17 2.53  15 2.53   5 2.53  19 2.53  58 2.55
                            58 2.55  60 2.59   9 2.63   3 2.63
   8  0.656  0.828  0.250-  10 2.46  12 2.46  59 2.51   6 2.53   4 2.53  18 2.54  16 2.54  57 2.55
                            57 2.55  55 2.55  10 2.63  12 2.63
   9  0.172  0.828  0.750-   7 2.47   3 2.47  56 2.51  15 2.53  13 2.53  19 2.53  21 2.53  58 2.55
                            58 2.55  60 2.59   7 2.63   3 2.63
  10  0.172  0.828  0.250-   8 2.46  12 2.46  59 2.51   4 2.53  11 2.53  16 2.54  14 2.54  57 2.55
                            57 2.55  55 2.55   8 2.63  12 2.63
  11  0.010  0.505  0.313-   6 2.47   4 2.47  61 2.51  24 2.53  22 2.53  10 2.53  12 2.53  59 2.55
                            59 2.55  57 2.59   6 2.63   4 2.63
  12  0.172  0.344  0.250-   8 2.46  10 2.46  59 2.51   6 2.53  11 2.53  18 2.54  14 2.54  57 2.55
                            57 2.55  55 2.55  10 2.63   8 2.63
  13  0.998  0.499  0.687-  54 2.53  17 2.53  15 2.53   9 2.53   3 2.53  50 2.54  34 2.54  56 2.55
                            56 2.55  17 2.56  15 2.56  58 2.61
  14  0.998  0.499  0.187-  18 2.53  16 2.53  49 2.54  20 2.54  10 2.54  12 2.54  57 2.54  55 2.55
                            55 2.55   2 2.55  18 2.56  16 2.56
  15  0.501  0.002  0.687-  54 2.53  17 2.53  13 2.53   9 2.53   7 2.53  50 2.54  48 2.54  56 2.55
                            56 2.55  17 2.56  13 2.56  58 2.61
  16  0.501  0.002  0.187-  18 2.53  14 2.53  49 2.54  47 2.54  10 2.54   8 2.54  57 2.54  55 2.55
                            55 2.55   2 2.55  14 2.56  18 2.56
  17  0.501  0.499  0.687-  54 2.53  13 2.53  15 2.53   3 2.53   7 2.53  34 2.54  48 2.54  56 2.55
                            56 2.55  13 2.56  15 2.56  58 2.61
  18  0.501  0.499  0.187-  14 2.53  16 2.53  20 2.54  47 2.54  12 2.54   8 2.54  57 2.54  55 2.55
                            55 2.55   2 2.55  14 2.56  16 2.56
  19  0.495  0.989  0.813-   5 2.46  21 2.46  58 2.51   9 2.53   7 2.53  25 2.54  27 2.54  60 2.55
                            60 2.55  62 2.55   5 2.63  21 2.63
  20  0.833  0.666  0.125-  18 2.54  14 2.54  45 2.54  43 2.54  47 2.54  49 2.54   2 2.55   2 2.55
                            49 2.55  47 2.55  55 2.56  52 2.58
  21  0.011  0.505  0.813-   5 2.46  19 2.46  58 2.51   9 2.53   3 2.53  25 2.54  23 2.54  60 2.55
                            60 2.55  62 2.55   5 2.63  19 2.63
  22  0.166  0.331  0.375-  63 2.53  26 2.53  24 2.53   6 2.53  11 2.53  28 2.54  30 2.54  61 2.55
                            61 2.55  26 2.56  24 2.56  59 2.61
  23  0.166  0.332  0.875-  25 2.53  27 2.53  29 2.54  31 2.54   5 2.54  21 2.54  60 2.54  62 2.55
                            62 2.55   1 2.55  25 2.56  27 2.56
  24  0.166  0.834  0.375-  63 2.53  26 2.53  22 2.53   4 2.53  11 2.53  32 2.54  28 2.54  61 2.55
                            61 2.55  26 2.56  22 2.56  59 2.61
  25  0.166  0.834  0.875-  27 2.53  23 2.53  33 2.54  29 2.54  19 2.54  21 2.54  60 2.54  62 2.55
                            62 2.55   1 2.55  27 2.56  23 2.56
  26  0.669  0.834  0.375-  63 2.53  24 2.53  22 2.53   6 2.53   4 2.53  32 2.54  30 2.54  61 2.55
                            61 2.55  24 2.56  22 2.56  59 2.61
  27  0.668  0.834  0.875-  25 2.53  23 2.53  33 2.54  31 2.54   5 2.54  19 2.54  60 2.54  62 2.55
                            62 2.55   1 2.55  25 2.56  23 2.56
  28  0.333  0.167  0.438-  51 2.54  22 2.54  24 2.54  36 2.54  38 2.54  30 2.54  32 2.54  63 2.55
                            63 2.55  30 2.55  32 2.55  61 2.59
  29  0.333  0.166  0.938-  23 2.54  25 2.54  35 2.54  37 2.54  31 2.54  33 2.54   1 2.55   1 2.55
                            31 2.55  33 2.55  62 2.56  64 2.58
  30  0.833  0.167  0.438-  51 2.54  22 2.54  26 2.54  38 2.54  40 2.54  28 2.54  32 2.54  63 2.55
                            63 2.55  28 2.55  32 2.55  61 2.59
  31  0.834  0.166  0.938-  23 2.54  27 2.54  37 2.54  39 2.54  29 2.54  33 2.54   1 2.55   1 2.55
                            29 2.55  33 2.55  62 2.56  64 2.58
  32  0.833  0.667  0.438-  51 2.54  26 2.54  24 2.54  36 2.54  40 2.54  30 2.54  28 2.54  63 2.55
                            63 2.55  28 2.55  30 2.55  61 2.59
  33  0.834  0.667  0.938-  27 2.54  25 2.54  35 2.54  39 2.54  29 2.54  31 2.54   1 2.55   1 2.55
                            31 2.55  29 2.55  62 2.56  64 2.58
  34  0.833  0.667  0.625-  53 2.54  17 2.54  13 2.54  46 2.54  44 2.54  50 2.54  48 2.54  54 2.55
                            54 2.55  48 2.55  50 2.55  56 2.59
  35  0.500  0.500  1.000-  52 2.51   1 2.53  33 2.54  29 2.54  39 2.54  37 2.54  64 2.55  64 2.55
                            39 2.55  37 2.55  41 2.56  45 2.56
  36  0.500  0.500  0.500-  32 2.54  28 2.54  42 2.54  46 2.54  40 2.55  38 2.55  51 2.55  51 2.55
                            40 2.55  38 2.55  53 2.55  63 2.56
  37  0.500  1.000  1.000-  52 2.51   1 2.53  31 2.54  29 2.54  39 2.54  35 2.54  64 2.55  64 2.55
                            35 2.55  39 2.55  43 2.56  45 2.56
  38  0.500  1.000  0.500-  30 2.54  28 2.54  44 2.54  46 2.54  40 2.55  36 2.55  51 2.55  51 2.55
                            36 2.55  40 2.55  53 2.55  63 2.56
  39  0.000  0.500  1.000-  52 2.51   1 2.53  31 2.54  33 2.54  35 2.54  37 2.54  64 2.55  64 2.55
                            35 2.55  37 2.55  43 2.56  41 2.56
  40  0.000  0.500  0.500-  30 2.54  32 2.54  44 2.54  42 2.54  36 2.55  38 2.55  51 2.55  51 2.55
                            36 2.55  38 2.55  53 2.55  63 2.56
  41  0.167  0.334  0.063-  64 2.51   2 2.53  47 2.54  49 2.54  45 2.54  43 2.54  52 2.55  52 2.55
                            43 2.55  45 2.55  35 2.56  39 2.56
  42  0.167  0.333  0.562-  48 2.54  50 2.54  36 2.54  40 2.54  46 2.55  44 2.55  53 2.55  53 2.55
                            44 2.55  46 2.55  51 2.55  54 2.56
  43  0.167  0.833  0.063-  64 2.51   2 2.53  20 2.54  47 2.54  45 2.54  41 2.54  52 2.55  52 2.55
                            45 2.55  41 2.55  37 2.56  39 2.56
  44  0.167  0.833  0.562-  34 2.54  48 2.54  38 2.54  40 2.54  46 2.55  42 2.55  53 2.55  53 2.55
                            46 2.55  42 2.55  51 2.55  54 2.56
  45  0.666  0.833  0.063-  64 2.51   2 2.53  20 2.54  49 2.54  43 2.54  41 2.54  52 2.55  52 2.55
                            43 2.55  41 2.55  35 2.56  37 2.56
  46  0.667  0.833  0.562-  34 2.54  50 2.54  36 2.54  38 2.54  44 2.55  42 2.55  53 2.55  53 2.55
                            44 2.55  42 2.55  51 2.55  54 2.56
  47  0.334  0.167  0.125-  18 2.54  16 2.54  41 2.54  43 2.54  49 2.54  20 2.54   2 2.55   2 2.55
                            49 2.55  20 2.55  55 2.56  52 2.58
  48  0.333  0.167  0.625-  53 2.54  17 2.54  15 2.54  42 2.54  44 2.54  50 2.54  34 2.54  54 2.55
                            54 2.55  50 2.55  34 2.55  56 2.59
  49  0.833  0.167  0.125-  16 2.54  14 2.54  41 2.54  45 2.54  47 2.54  20 2.54   2 2.55   2 2.55
                            47 2.55  20 2.55  55 2.56  52 2.58
  50  0.833  0.167  0.625-  53 2.54  15 2.54  13 2.54  42 2.54  46 2.54  48 2.54  34 2.54  54 2.55
                            54 2.55  48 2.55  34 2.55  56 2.59
  51  0.000  0.000  0.500-  28 2.54  32 2.54  30 2.54  38 2.55  38 2.55  40 2.55  36 2.55  36 2.55
                            40 2.55  46 2.55  42 2.55  44 2.55
  52  0.667  0.333  0.061-  39 2.51  37 2.51  35 2.51  41 2.55  41 2.55  45 2.55  43 2.55  43 2.55
                            45 2.55  49 2.58  47 2.58  20 2.58
  53  0.667  0.333  0.563-  50 2.54  48 2.54  34 2.54  42 2.55  42 2.55  46 2.55  44 2.55  44 2.55
                            46 2.55  40 2.55  38 2.55  36 2.55
  54  0.333  0.667  0.625-  13 2.53  15 2.53  17 2.53  34 2.55  34 2.55  48 2.55  50 2.55  50 2.55
                            48 2.55  44 2.56  46 2.56  42 2.56
  55  0.000  0.000  0.188-  16 2.55  16 2.55  14 2.55  18 2.55  14 2.55  18 2.55   8 2.55  12 2.55
                            10 2.55  47 2.56  20 2.56  49 2.56
  56  0.000  0.000  0.689-   7 2.51   3 2.51   9 2.51  15 2.55  15 2.55  17 2.55  13 2.55  13 2.55
                            17 2.55  48 2.59  34 2.59  50 2.59
  57  0.667  0.333  0.250-  14 2.54  16 2.54  18 2.54  12 2.55  12 2.55   8 2.55  10 2.55  10 2.55
                             8 2.55  11 2.59   4 2.59   6 2.59
  58  0.667  0.333  0.752-  21 2.51  19 2.51   5 2.51   3 2.55   3 2.55   9 2.55   7 2.55   7 2.55
                             9 2.55  13 2.61  15 2.61  17 2.61
  59  0.000  0.000  0.310-   8 2.51  12 2.51  10 2.51   4 2.55   4 2.55  11 2.55   6 2.55  11 2.55
                             6 2.55  26 2.61  22 2.61  24 2.61
  60  0.000  0.000  0.813-  27 2.54  23 2.54  25 2.54  19 2.55  19 2.55  21 2.55   5 2.55   5 2.55
                            21 2.55   7 2.59   3 2.59   9 2.59
  61  0.667  0.333  0.373-  11 2.51   4 2.51   6 2.51  22 2.55  22 2.55  24 2.55  26 2.55  26 2.55
                            24 2.55  30 2.59  28 2.59  32 2.59
  62  0.667  0.333  0.874-  23 2.55  23 2.55  25 2.55  27 2.55  27 2.55  25 2.55  21 2.55  19 2.55
                             5 2.55  31 2.56  29 2.56  33 2.56
  63  0.333  0.667  0.437-  24 2.53  26 2.53  22 2.53  32 2.55  32 2.55  28 2.55  30 2.55  30 2.55
                            28 2.55  40 2.56  38 2.56  36 2.56
  64  0.000  0.000  0.002-  45 2.51  41 2.51  43 2.51  37 2.55  37 2.55  39 2.55  35 2.55  35 2.55
                            39 2.55  29 2.58  33 2.58  31 2.58
 
  LATTYP: Found a hexagonal cell.
 ALAT       =     5.0915821011
 C/A-ratio  =     6.5264964492
  
  Lattice vectors:
  
 A1 = (   5.0915815516,   0.0000000000,   0.0000000000)
 A2 = (  -2.5457907758,   4.4094396036,   0.0000000000)
 A3 = (   0.0000000000,   0.0000000000,  33.2301925035)


Analysis of symmetry for initial positions (statically):
=====================================================================
 Subroutine PRICEL returns:
 Original cell was already a primitive cell.
 

 Routine SETGRP: Setting up the symmetry group for a 
 hexagonal supercell.


 Subroutine GETGRP returns: Found 12 space group operations
 (whereof  6 operations were pure point group operations)
 out of a pool of 24 trial point group operations.


The static configuration has the point symmetry C_3v.
 The point group associated with its full space group is D_3d.


Analysis of symmetry for dynamics (positions and initial velocities):
=====================================================================
 Subroutine PRICEL returns:
 Original cell was already a primitive cell.
 

 Routine SETGRP: Setting up the symmetry group for a 
 hexagonal supercell.


 Subroutine GETGRP returns: Found 12 space group operations
 (whereof  6 operations were pure point group operations)
 out of a pool of 24 trial point group operations.


The dynamic configuration has the point symmetry C_3v.
 The point group associated with its full space group is D_3d.


Analysis of structural, dynamic, and magnetic symmetry:
=====================================================================
 Subroutine PRICEL returns:
 Original cell was already a primitive cell.
 

 Routine SETGRP: Setting up the symmetry group for a 
 hexagonal supercell.


 Subroutine GETGRP returns: Found 12 space group operations
 (whereof  6 operations were pure point group operations)
 out of a pool of 24 trial point group operations.


The magnetic configuration has the point symmetry C_3v.
 The point group associated with its full space group is D_3d.


 Subroutine INISYM returns: Found 12 space group operations
 (whereof  6 operations are pure point group operations),
 and found     1 'primitive' translations

 
 
 KPOINTS: KPOINTS                                 

Automatic generation of k-mesh.
Space group operators:
 irot       det(A)        alpha          n_x          n_y          n_z        tau_x        tau_y        tau_z
    1     1.000000     0.000000     1.000000     0.000000     0.000000     0.000000     0.000000     0.000000
    2     1.000000   120.000000     0.000000     0.000000    -1.000000     0.000000     0.000000     0.000000
    3     1.000000   120.000000     0.000000     0.000000     1.000000     0.000000     0.000000     0.000000
    4    -1.000000   180.000000     1.000000     0.000000     0.000000     0.000000     0.000000     0.000000
    5    -1.000000   180.000000     0.500000    -0.866025     0.000000     0.000000     0.000000     0.000000
    6    -1.000000   180.000000    -0.500000    -0.866025     0.000000     0.000000     0.000000     0.000000
    7    -1.000000     0.000000     1.000000     0.000000     0.000000     0.666667     0.333333     0.062500
    8    -1.000000   120.000000     0.000000     0.000000    -1.000000     0.666667     0.333333     0.062500
    9    -1.000000   120.000000     0.000000     0.000000     1.000000     0.666667     0.333333     0.062500
   10     1.000000   180.000000     1.000000     0.000000     0.000000     0.666667     0.333333     0.062500
   11     1.000000   180.000000     0.500000    -0.866025     0.000000     0.666667     0.333333     0.062500
   12     1.000000   180.000000    -0.500000    -0.866025     0.000000     0.666667     0.333333     0.062500
 
 Subroutine IBZKPT returns following result:
 ===========================================
 
 Found    121 irreducible k-points:
 
 Following reciprocal coordinates:
            Coordinates               Weight
  0.000000  0.000000  0.000000      1.000000
  0.050000 -0.000000  0.000000      6.000000
  0.100000 -0.000000  0.000000      6.000000
  0.150000 -0.000000  0.000000      6.000000
  0.200000 -0.000000  0.000000      6.000000
  0.250000  0.000000  0.000000      6.000000
  0.300000 -0.000000  0.000000      6.000000
  0.350000 -0.000000  0.000000      6.000000
  0.400000 -0.000000  0.000000      6.000000
  0.450000 -0.000000  0.000000      6.000000
  0.500000  0.000000  0.000000      3.000000
  0.050000  0.050000  0.000000      6.000000
  0.100000  0.050000  0.000000     12.000000
  0.150000  0.050000  0.000000     12.000000
  0.200000  0.050000  0.000000     12.000000
  0.250000  0.050000  0.000000     12.000000
  0.300000  0.050000  0.000000     12.000000
  0.350000  0.050000  0.000000     12.000000
  0.400000  0.050000  0.000000     12.000000
  0.450000  0.050000  0.000000     12.000000
  0.100000  0.100000  0.000000      6.000000
  0.150000  0.100000  0.000000     12.000000
  0.200000  0.100000  0.000000     12.000000
  0.250000  0.100000  0.000000     12.000000
  0.300000  0.100000  0.000000     12.000000
  0.350000  0.100000  0.000000     12.000000
  0.400000  0.100000  0.000000     12.000000
  0.450000  0.100000  0.000000      6.000000
  0.150000  0.150000  0.000000      6.000000
  0.200000  0.150000  0.000000     12.000000
  0.250000  0.150000  0.000000     12.000000
  0.300000  0.150000  0.000000     12.000000
  0.350000  0.150000  0.000000     12.000000
  0.400000  0.150000  0.000000     12.000000
  0.200000  0.200000  0.000000      6.000000
  0.250000  0.200000  0.000000     12.000000
  0.300000  0.200000  0.000000     12.000000
  0.350000  0.200000  0.000000     12.000000
  0.400000  0.200000  0.000000      6.000000
  0.250000  0.250000  0.000000      6.000000
  0.300000  0.250000  0.000000     12.000000
  0.350000  0.250000  0.000000     12.000000
  0.300000  0.300000  0.000000      6.000000
  0.350000  0.300000  0.000000      6.000000
  0.000000  0.000000  0.333333      2.000000
  0.050000 -0.000000  0.333333      6.000000
  0.100000 -0.000000  0.333333      6.000000
  0.150000 -0.000000  0.333333      6.000000
  0.200000 -0.000000  0.333333      6.000000
  0.250000  0.000000  0.333333      6.000000
  0.300000 -0.000000  0.333333      6.000000
  0.350000 -0.000000  0.333333      6.000000
  0.400000 -0.000000  0.333333      6.000000
  0.450000 -0.000000  0.333333      6.000000
  0.500000  0.000000  0.333333      6.000000
 -0.450000  0.000000  0.333333      6.000000
 -0.400000  0.000000  0.333333      6.000000
 -0.350000  0.000000  0.333333      6.000000
 -0.300000  0.000000  0.333333      6.000000
 -0.250000  0.000000  0.333333      6.000000
 -0.200000  0.000000  0.333333      6.000000
 -0.150000  0.000000  0.333333      6.000000
 -0.100000  0.000000  0.333333      6.000000
 -0.050000  0.000000  0.333333      6.000000
  0.050000  0.050000  0.333333     12.000000
  0.100000  0.050000  0.333333     12.000000
  0.150000  0.050000  0.333333     12.000000
  0.200000  0.050000  0.333333     12.000000
  0.250000  0.050000  0.333333     12.000000
  0.300000  0.050000  0.333333     12.000000
  0.350000  0.050000  0.333333     12.000000
  0.400000  0.050000  0.333333     12.000000
  0.450000  0.050000  0.333333     12.000000
  0.500000  0.050000  0.333333     12.000000
 -0.450000  0.050000  0.333333     12.000000
 -0.400000  0.050000  0.333333     12.000000
 -0.350000  0.050000  0.333333     12.000000
 -0.300000  0.050000  0.333333     12.000000
 -0.250000  0.050000  0.333333     12.000000
 -0.200000  0.050000  0.333333     12.000000
 -0.150000  0.050000  0.333333     12.000000
  0.100000  0.100000  0.333333     12.000000
  0.150000  0.100000  0.333333     12.000000
  0.200000  0.100000  0.333333     12.000000
  0.250000  0.100000  0.333333     12.000000
  0.300000  0.100000  0.333333     12.000000
  0.350000  0.100000  0.333333     12.000000
  0.400000  0.100000  0.333333     12.000000
  0.450000  0.100000  0.333333     12.000000
  0.500000  0.100000  0.333333     12.000000
 -0.450000  0.100000  0.333333     12.000000
 -0.400000  0.100000  0.333333     12.000000
 -0.350000  0.100000  0.333333     12.000000
 -0.300000  0.100000  0.333333     12.000000
 -0.250000  0.100000  0.333333     12.000000
  0.150000  0.150000  0.333333     12.000000
  0.200000  0.150000  0.333333     12.000000
  0.250000  0.150000  0.333333     12.000000
  0.300000  0.150000  0.333333     12.000000
  0.350000  0.150000  0.333333     12.000000
  0.400000  0.150000  0.333333     12.000000
  0.450000  0.150000  0.333333     12.000000
  0.500000  0.150000  0.333333     12.000000
 -0.450000  0.150000  0.333333     12.000000
 -0.400000  0.150000  0.333333     12.000000
 -0.350000  0.150000  0.333333     12.000000
  0.200000  0.200000  0.333333     12.000000
  0.250000  0.200000  0.333333     12.000000
  0.300000  0.200000  0.333333     12.000000
  0.350000  0.200000  0.333333     12.000000
  0.400000  0.200000  0.333333     12.000000
  0.450000  0.200000  0.333333     12.000000
  0.500000  0.200000  0.333333     12.000000
 -0.450000  0.200000  0.333333     12.000000
  0.250000  0.250000  0.333333     12.000000
  0.300000  0.250000  0.333333     12.000000
  0.350000  0.250000  0.333333     12.000000
  0.400000  0.250000  0.333333     12.000000
  0.450000  0.250000  0.333333     12.000000
  0.300000  0.300000  0.333333     12.000000
  0.350000  0.300000  0.333333     12.000000
 
 Following cartesian coordinates:
            Coordinates               Weight
  0.000000  0.000000  0.000000      1.000000
  0.009820  0.005670  0.000000      6.000000
  0.019640  0.011339  0.000000      6.000000
  0.029460  0.017009  0.000000      6.000000
  0.039281  0.022679  0.000000      6.000000
  0.049101  0.028348  0.000000      6.000000
  0.058921  0.034018  0.000000      6.000000
  0.068741  0.039688  0.000000      6.000000
  0.078561  0.045357  0.000000      6.000000
  0.088381  0.051027  0.000000      6.000000
  0.098201  0.056697  0.000000      3.000000
  0.009820  0.017009  0.000000      6.000000
  0.019640  0.022679  0.000000     12.000000
  0.029460  0.028348  0.000000     12.000000
  0.039281  0.034018  0.000000     12.000000
  0.049101  0.039688  0.000000     12.000000
  0.058921  0.045357  0.000000     12.000000
  0.068741  0.051027  0.000000     12.000000
  0.078561  0.056697  0.000000     12.000000
  0.088381  0.062366  0.000000     12.000000
  0.019640  0.034018  0.000000      6.000000
  0.029460  0.039688  0.000000     12.000000
  0.039281  0.045357  0.000000     12.000000
  0.049101  0.051027  0.000000     12.000000
  0.058921  0.056697  0.000000     12.000000
  0.068741  0.062366  0.000000     12.000000
  0.078561  0.068036  0.000000     12.000000
  0.088381  0.073706  0.000000      6.000000
  0.029460  0.051027  0.000000      6.000000
  0.039281  0.056697  0.000000     12.000000
  0.049101  0.062366  0.000000     12.000000
  0.058921  0.068036  0.000000     12.000000
  0.068741  0.073706  0.000000     12.000000
  0.078561  0.079375  0.000000     12.000000
  0.039281  0.068036  0.000000      6.000000
  0.049101  0.073706  0.000000     12.000000
  0.058921  0.079375  0.000000     12.000000
  0.068741  0.085045  0.000000     12.000000
  0.078561  0.090714  0.000000      6.000000
  0.049101  0.085045  0.000000      6.000000
  0.058921  0.090714  0.000000     12.000000
  0.068741  0.096384  0.000000     12.000000
  0.058921  0.102054  0.000000      6.000000
  0.068741  0.107723  0.000000      6.000000
  0.000000  0.000000  0.010031      2.000000
  0.009820  0.005670  0.010031      6.000000
  0.019640  0.011339  0.010031      6.000000
  0.029460  0.017009  0.010031      6.000000
  0.039281  0.022679  0.010031      6.000000
  0.049101  0.028348  0.010031      6.000000
  0.058921  0.034018  0.010031      6.000000
  0.068741  0.039688  0.010031      6.000000
  0.078561  0.045357  0.010031      6.000000
  0.088381  0.051027  0.010031      6.000000
  0.098201  0.056697  0.010031      6.000000
 -0.088381 -0.051027  0.010031      6.000000
 -0.078561 -0.045357  0.010031      6.000000
 -0.068741 -0.039688  0.010031      6.000000
 -0.058921 -0.034018  0.010031      6.000000
 -0.049101 -0.028348  0.010031      6.000000
 -0.039281 -0.022679  0.010031      6.000000
 -0.029460 -0.017009  0.010031      6.000000
 -0.019640 -0.011339  0.010031      6.000000
 -0.009820 -0.005670  0.010031      6.000000
  0.009820  0.017009  0.010031     12.000000
  0.019640  0.022679  0.010031     12.000000
  0.029460  0.028348  0.010031     12.000000
  0.039281  0.034018  0.010031     12.000000
  0.049101  0.039688  0.010031     12.000000
  0.058921  0.045357  0.010031     12.000000
  0.068741  0.051027  0.010031     12.000000
  0.078561  0.056697  0.010031     12.000000
  0.088381  0.062366  0.010031     12.000000
  0.098201  0.068036  0.010031     12.000000
 -0.088381 -0.039688  0.010031     12.000000
 -0.078561 -0.034018  0.010031     12.000000
 -0.068741 -0.028348  0.010031     12.000000
 -0.058921 -0.022679  0.010031     12.000000
 -0.049101 -0.017009  0.010031     12.000000
 -0.039281 -0.011339  0.010031     12.000000
 -0.029460 -0.005670  0.010031     12.000000
  0.019640  0.034018  0.010031     12.000000
  0.029460  0.039688  0.010031     12.000000
  0.039281  0.045357  0.010031     12.000000
  0.049101  0.051027  0.010031     12.000000
  0.058921  0.056697  0.010031     12.000000
  0.068741  0.062366  0.010031     12.000000
  0.078561  0.068036  0.010031     12.000000
  0.088381  0.073706  0.010031     12.000000
  0.098201  0.079375  0.010031     12.000000
 -0.088381 -0.028348  0.010031     12.000000
 -0.078561 -0.022679  0.010031     12.000000
 -0.068741 -0.017009  0.010031     12.000000
 -0.058921 -0.011339  0.010031     12.000000
 -0.049101 -0.005670  0.010031     12.000000
  0.029460  0.051027  0.010031     12.000000
  0.039281  0.056697  0.010031     12.000000
  0.049101  0.062366  0.010031     12.000000
  0.058921  0.068036  0.010031     12.000000
  0.068741  0.073706  0.010031     12.000000
  0.078561  0.079375  0.010031     12.000000
  0.088381  0.085045  0.010031     12.000000
  0.098201  0.090714  0.010031     12.000000
 -0.088381 -0.017009  0.010031     12.000000
 -0.078561 -0.011339  0.010031     12.000000
 -0.068741 -0.005670  0.010031     12.000000
  0.039281  0.068036  0.010031     12.000000
  0.049101  0.073706  0.010031     12.000000
  0.058921  0.079375  0.010031     12.000000
  0.068741  0.085045  0.010031     12.000000
  0.078561  0.090714  0.010031     12.000000
  0.088381  0.096384  0.010031     12.000000
  0.098201  0.102054  0.010031     12.000000
 -0.088381 -0.005670  0.010031     12.000000
  0.049101  0.085045  0.010031     12.000000
  0.058921  0.090714  0.010031     12.000000
  0.068741  0.096384  0.010031     12.000000
  0.078561  0.102054  0.010031     12.000000
  0.088381  0.107723  0.010031     12.000000
  0.058921  0.102054  0.010031     12.000000
  0.068741  0.107723  0.010031     12.000000
 
 TETIRR: Found   1714 inequivalent tetrahedra from     7200


--------------------------------------------------------------------------------------------------------




 Dimension of arrays:
   k-points           NKPTS =    121   k-points in BZ     NKDIM =    121   number of bands    NBANDS=    416
   number of dos      NEDOS =    301   number of ions     NIONS =     64
   non local maximal  LDIM  =      6   non local SUM 2l+1 LMDIM =     18
   total plane-waves  NPLWV = 131712
   max r-space proj   IRMAX =      1   max aug-charges    IRDMAX=   7070
   dimension x,y,z NGX =    28 NGY =   28 NGZ =  168
   dimension x,y,z NGXF=    56 NGYF=   56 NGZF=  336
   support grid    NGXF=    56 NGYF=   56 NGZF=  336
   ions per type =               2  48  14
 NGX,Y,Z   is equivalent  to a cutoff of   9.14,  9.14,  8.40 a.u.
 NGXF,Y,Z  is equivalent  to a cutoff of  18.28, 18.28, 16.81 a.u.


 I would recommend the setting:
   dimension x,y,z NGX =    25 NGY =   25 NGZ =  163
 SYSTEM =  Test of VASP submission                 
 POSCAR =  SCEL2_1_1_2_0_0_0/9398                  

 Startparameter for this run:
   NWRITE =      2    write-flag & timer
   PREC   = normal    normal or accurate (medium, high low for compatibility)
   ISTART =      0    job   : 0-new  1-cont  2-samecut
   ICHARG =      2    charge: 1-file 2-atom 10-const
   ISPIN  =      2    spin polarized calculation?
   LNONCOLLINEAR =      F non collinear calculations
   LSORBIT =      F    spin-orbit coupling
   INIWAV =      1    electr: 0-lowe 1-rand  2-diag
   LASPH  =      F    aspherical Exc in radial PAW
   METAGGA=      F    non-selfconsistent MetaGGA calc.

 Electronic Relaxation 1
   ENCUT  =  400.0 eV  29.40 Ry    5.42 a.u.   8.30  8.30 54.19*2*pi/ulx,y,z
   ENINI  =  400.0     initial cutoff
   ENAUG  =  544.6 eV  augmentation charge cutoff
   NELM   =    100;   NELMIN=  2; NELMDL=-12     # of ELM steps 
   EDIFF  = 0.1E-03   stopping-criterion for ELM
   LREAL  =      F    real-space projection
   NLSPLINE    = F    spline interpolate recip. space projectors
   LCOMPAT=      F    compatible to vasp.4.4
   GGA_COMPAT  = T    GGA compatible to vasp.4.4-vasp.4.6
   LMAXPAW     = -100 max onsite density
   LMAXMIX     =    2 max onsite mixed and CHGCAR
   VOSKOWN=      0    Vosko Wilk Nusair interpolation
   ROPT   =    0.00000   0.00000   0.00000
 Ionic relaxation
   EDIFFG = 0.1E-02   stopping-criterion for IOM
   NSW    =      0    number of steps for IOM
   NBLOCK =      1;   KBLOCK =      1    inner block; outer block 
   IBRION =     -1    ionic relax: 0-MD 1-quasi-New 2-CG
   NFREE  =      0    steps in history (QN), initial steepest desc. (CG)
   ISIF   =      2    stress and relaxation
   IWAVPR =     10    prediction:  0-non 1-charg 2-wave 3-comb
   ISYM   =      2    0-nonsym 1-usesym 2-fastsym
   LCORR  =      T    Harris-Foulkes like correction to forces

   POTIM  = 0.5000    time-step for ionic-motion
   TEIN   =    0.0    initial temperature
   TEBEG  =    0.0;   TEEND  =   0.0 temperature during run
   SMASS  =  -3.00    Nose mass-parameter (am)
   estimated Nose-frequenzy (Omega)   =  0.10E-29 period in steps =****** mass=  -0.592E-27a.u.
   SCALEE = 1.0000    scale energy and forces
   NPACO  =    256;   APACO  = 16.0  distance and # of slots for P.C.
   PSTRESS=    0.0 pullay stress

  Mass of Ions in am
   POMASS =  26.98 58.69 47.88
  Ionic Valenz
   ZVAL   =   3.00 10.00 12.00
  Atomic Wigner-Seitz radii
   RWIGS  =  -1.00 -1.00 -1.00
  virtual crystal weights 
   VCA    =   1.00  1.00  1.00
   NELECT =     654.0000    total number of electrons
   NUPDOWN=      -1.0000    fix difference up-down

 DOS related values:
   EMIN   =  10.00;   EMAX   =-10.00  energy-range for DOS
   EFERMI =   0.00
   ISMEAR =    -5;   SIGMA  =   0.20  broadening in eV -4-tet -1-fermi 0-gaus

 Electronic relaxation 2 (details)
   IALGO  =     48    algorithm
   LDIAG  =      T    sub-space diagonalisation (order eigenvalues)
   LSUBROT=      F    optimize rotation matrix (better conditioning)
   TURBO    =      0    0=normal 1=particle mesh
   IRESTART =      0    0=no restart 2=restart with 2 vectors
   NREBOOT  =      0    no. of reboots
   NMIN     =      0    reboot dimension
   EREF     =   0.00    reference energy to select bands
   IMIX   =      4    mixing-type and parameters
     AMIX     =   0.40;   BMIX     =  1.00
     AMIX_MAG =   1.60;   BMIX_MAG =  1.00
     AMIN     =   0.10
     WC   =   100.;   INIMIX=   1;  MIXPRE=   1;  MAXMIX= -45

 Intra band minimization:
   WEIMIN = 0.0000     energy-eigenvalue tresh-hold
   EBREAK =  0.60E-07  absolut break condition
   DEPER  =   0.30     relativ break condition  

   TIME   =   0.40     timestep for ELM

  volume/ion in A,a.u.               =      11.66        78.67
  Fermi-wavevector in a.u.,A,eV,Ry     =   1.566791  2.960806 33.400049  2.454834
  Thomas-Fermi vector in A             =   2.669067
 
 Write flags
   LWAVE  =      F    write WAVECAR
   LCHARG =      F    write CHGCAR
   LVTOT  =      F    write LOCPOT, total local potential
   LVHAR  =      F    write LOCPOT, Hartree potential only
   LELF   =      F    write electronic localiz. function (ELF)
   LORBIT =     11    0 simple, 1 ext, 2 COOP (PROOUT)


 Dipole corrections
   LMONO  =      F    monopole corrections only (constant potential shift)
   LDIPOL =      F    correct potential (dipole corrections)
   IDIPOL =      0    1-x, 2-y, 3-z, 4-all directions 
   EPSILON=  1.0000000 bulk dielectric constant

 Exchange correlation treatment:
   GGA     =    --    GGA type
   LEXCH   =     8    internal setting for exchange type
   VOSKOWN=      0    Vosko Wilk Nusair interpolation
   LHFCALC =     F    Hartree Fock is set to
   LHFONE  =     F    Hartree Fock one center treatment
   AEXX    =    0.0000 exact exchange contribution

 Linear response parameters
   LEPSILON=     F    determine dielectric tensor
   LRPA    =     F    only Hartree local field effects (RPA)
   LNABLA  =     F    use nabla operator in PAW spheres
   LVEL    =     F    velocity operator in full k-point grid
   LINTERFAST=   F  fast interpolation
   KINTER  =     0    interpolate to denser k-point grid
   CSHIFT  =0.1000    complex shift for real part using Kramers Kronig
   OMEGAMAX=  -1.0    maximum frequency
   DEG_THRESHOLD= 0.2000000E-02 threshold for treating states as degnerate
   RTIME   =    0.100 relaxation time in fs

 Orbital magnetization related:
   ORBITALMAG=     F  switch on orbital magnetization
   LCHIMAG   =     F  perturbation theory with respect to B field
   DQ        =  0.001000  dq finite difference perturbation B field



--------------------------------------------------------------------------------------------------------


 Static calculation
 charge density and potential will be updated during run
 spin polarized calculation
 RMM-DIIS sequential band-by-band
 perform sub-space diagonalisation
    before iterative eigenvector-optimisation
 modified Broyden-mixing scheme, WC =      100.0
 initial mixing is a Kerker type mixing with AMIX =  0.4000 and BMIX =      1.0000
 Hartree-type preconditioning will be used
 using additional bands           89
 reciprocal scheme for non local part
 use partial core corrections
 calculate Harris-corrections to forces 
   (improved forces if not selfconsistent)
 use gradient corrections 
 use of overlap-Matrix (Vanderbilt PP)
 Fermi weights with tetrahedron method with Bloechl corrections


--------------------------------------------------------------------------------------------------------


  energy-cutoff  :      400.00
  volume of cell :      746.05
      direct lattice vectors                 reciprocal lattice vectors
     5.091581552  0.000000000  0.000000000     0.196402629  0.113393094  0.000000000
    -2.545790776  4.409439604  0.000000000     0.000000000  0.226786188  0.000000000
     0.000000000  0.000000000 33.230192504     0.000000000  0.000000000  0.030093115

  length of vectors
     5.091581552  5.091582101 33.230192504     0.226786213  0.226786188  0.030093115


 
 k-points in units of 2pi/SCALE and weight: KPOINTS                                 
   0.00000000  0.00000000  0.00000000       0.001
   0.00982013  0.00566965  0.00000000       0.005
   0.01964026  0.01133931  0.00000000       0.005
   0.02946039  0.01700896  0.00000000       0.005
   0.03928053  0.02267862  0.00000000       0.005
   0.04910066  0.02834827  0.00000000       0.005
   0.05892079  0.03401793  0.00000000       0.005
   0.06874092  0.03968758  0.00000000       0.005
   0.07856105  0.04535724  0.00000000       0.005
   0.08838118  0.05102689  0.00000000       0.005
   0.09820131  0.05669655  0.00000000       0.003
   0.00982013  0.01700896  0.00000000       0.005
   0.01964026  0.02267862  0.00000000       0.010
   0.02946039  0.02834827  0.00000000       0.010
   0.03928053  0.03401793  0.00000000       0.010
   0.04910066  0.03968758  0.00000000       0.010
   0.05892079  0.04535724  0.00000000       0.010
   0.06874092  0.05102689  0.00000000       0.010
   0.07856105  0.05669655  0.00000000       0.010
   0.08838118  0.06236620  0.00000000       0.010
   0.01964026  0.03401793  0.00000000       0.005
   0.02946039  0.03968758  0.00000000       0.010
   0.03928053  0.04535724  0.00000000       0.010
   0.04910066  0.05102689  0.00000000       0.010
   0.05892079  0.05669655  0.00000000       0.010
   0.06874092  0.06236620  0.00000000       0.010
   0.07856105  0.06803586  0.00000000       0.010
   0.08838118  0.07370551  0.00000000       0.005
   0.02946039  0.05102689  0.00000000       0.005
   0.03928053  0.05669655  0.00000000       0.010
   0.04910066  0.06236620  0.00000000       0.010
   0.05892079  0.06803586  0.00000000       0.010
   0.06874092  0.07370551  0.00000000       0.010
   0.07856105  0.07937517  0.00000000       0.010
   0.03928053  0.06803586  0.00000000       0.005
   0.04910066  0.07370551  0.00000000       0.010
   0.05892079  0.07937517  0.00000000       0.010
   0.06874092  0.08504482  0.00000000       0.010
   0.07856105  0.09071448  0.00000000       0.005
   0.04910066  0.08504482  0.00000000       0.005
   0.05892079  0.09071448  0.00000000       0.010
   0.06874092  0.09638413  0.00000000       0.010
   0.05892079  0.10205378  0.00000000       0.005
   0.06874092  0.10772344  0.00000000       0.005
   0.00000000  0.00000000  0.01003104       0.002
   0.00982013  0.00566965  0.01003104       0.005
   0.01964026  0.01133931  0.01003104       0.005
   0.02946039  0.01700896  0.01003104       0.005
   0.03928053  0.02267862  0.01003104       0.005
   0.04910066  0.02834827  0.01003104       0.005
   0.05892079  0.03401793  0.01003104       0.005
   0.06874092  0.03968758  0.01003104       0.005
   0.07856105  0.04535724  0.01003104       0.005
   0.08838118  0.05102689  0.01003104       0.005
   0.09820131  0.05669655  0.01003104       0.005
  -0.08838118 -0.05102689  0.01003104       0.005
  -0.07856105 -0.04535724  0.01003104       0.005
  -0.06874092 -0.03968758  0.01003104       0.005
  -0.05892079 -0.03401793  0.01003104       0.005
  -0.04910066 -0.02834827  0.01003104       0.005
  -0.03928053 -0.02267862  0.01003104       0.005
  -0.02946039 -0.01700896  0.01003104       0.005
  -0.01964026 -0.01133931  0.01003104       0.005
  -0.00982013 -0.00566965  0.01003104       0.005
   0.00982013  0.01700896  0.01003104       0.010
   0.01964026  0.02267862  0.01003104       0.010
   0.02946039  0.02834827  0.01003104       0.010
   0.03928053  0.03401793  0.01003104       0.010
   0.04910066  0.03968758  0.01003104       0.010
   0.05892079  0.04535724  0.01003104       0.010
   0.06874092  0.05102689  0.01003104       0.010
   0.07856105  0.05669655  0.01003104       0.010
   0.08838118  0.06236620  0.01003104       0.010
   0.09820131  0.06803586  0.01003104       0.010
  -0.08838118 -0.03968758  0.01003104       0.010
  -0.07856105 -0.03401793  0.01003104       0.010
  -0.06874092 -0.02834827  0.01003104       0.010
  -0.05892079 -0.02267862  0.01003104       0.010
  -0.04910066 -0.01700896  0.01003104       0.010
  -0.03928053 -0.01133931  0.01003104       0.010
  -0.02946039 -0.00566965  0.01003104       0.010
   0.01964026  0.03401793  0.01003104       0.010
   0.02946039  0.03968758  0.01003104       0.010
   0.03928053  0.04535724  0.01003104       0.010
   0.04910066  0.05102689  0.01003104       0.010
   0.05892079  0.05669655  0.01003104       0.010
   0.06874092  0.06236620  0.01003104       0.010
   0.07856105  0.06803586  0.01003104       0.010
   0.08838118  0.07370551  0.01003104       0.010
   0.09820131  0.07937517  0.01003104       0.010
  -0.08838118 -0.02834827  0.01003104       0.010
  -0.07856105 -0.02267862  0.01003104       0.010
  -0.06874092 -0.01700896  0.01003104       0.010
  -0.05892079 -0.01133931  0.01003104       0.010
  -0.04910066 -0.00566965  0.01003104       0.010
   0.02946039  0.05102689  0.01003104       0.010
   0.03928053  0.05669655  0.01003104       0.010
   0.04910066  0.06236620  0.01003104       0.010
   0.05892079  0.06803586  0.01003104       0.010
   0.06874092  0.07370551  0.01003104       0.010
   0.07856105  0.07937517  0.01003104       0.010
   0.08838118  0.08504482  0.01003104       0.010
   0.09820131  0.09071448  0.01003104       0.010
  -0.08838118 -0.01700896  0.01003104       0.010
  -0.07856105 -0.01133931  0.01003104       0.010
  -0.06874092 -0.00566965  0.01003104       0.010
   0.03928053  0.06803586  0.01003104       0.010
   0.04910066  0.07370551  0.01003104       0.010
   0.05892079  0.07937517  0.01003104       0.010
   0.06874092  0.08504482  0.01003104       0.010
   0.07856105  0.09071448  0.01003104       0.010
   0.08838118  0.09638413  0.01003104       0.010
   0.09820131  0.10205378  0.01003104       0.010
  -0.08838118 -0.00566965  0.01003104       0.010
   0.04910066  0.08504482  0.01003104       0.010
   0.05892079  0.09071448  0.01003104       0.010
   0.06874092  0.09638413  0.01003104       0.010
   0.07856105  0.10205378  0.01003104       0.010
   0.08838118  0.10772344  0.01003104       0.010
   0.05892079  0.10205378  0.01003104       0.010
   0.06874092  0.10772344  0.01003104       0.010
 
 k-points in reciprocal lattice and weights: KPOINTS                                 
   0.00000000  0.00000000  0.00000000       0.001
   0.05000000 -0.00000000  0.00000000       0.005
   0.10000000 -0.00000000  0.00000000       0.005
   0.15000000 -0.00000000  0.00000000       0.005
   0.20000000 -0.00000000  0.00000000       0.005
   0.25000000  0.00000000  0.00000000       0.005
   0.30000000 -0.00000000  0.00000000       0.005
   0.35000000 -0.00000000  0.00000000       0.005
   0.40000000 -0.00000000  0.00000000       0.005
   0.45000000 -0.00000000  0.00000000       0.005
   0.50000000  0.00000000  0.00000000       0.003
   0.05000000  0.05000000  0.00000000       0.005
   0.10000000  0.05000000  0.00000000       0.010
   0.15000000  0.05000000  0.00000000       0.010
   0.20000000  0.05000000  0.00000000       0.010
   0.25000000  0.05000000  0.00000000       0.010
   0.30000000  0.05000000  0.00000000       0.010
   0.35000000  0.05000000  0.00000000       0.010
   0.40000000  0.05000000  0.00000000       0.010
   0.45000000  0.05000000  0.00000000       0.010
   0.10000000  0.10000000  0.00000000       0.005
   0.15000000  0.10000000  0.00000000       0.010
   0.20000000  0.10000000  0.00000000       0.010
   0.25000000  0.10000000  0.00000000       0.010
   0.30000000  0.10000000  0.00000000       0.010
   0.35000000  0.10000000  0.00000000       0.010
   0.40000000  0.10000000  0.00000000       0.010
   0.45000000  0.10000000  0.00000000       0.005
   0.15000000  0.15000000  0.00000000       0.005
   0.20000000  0.15000000  0.00000000       0.010
   0.25000000  0.15000000  0.00000000       0.010
   0.30000000  0.15000000  0.00000000       0.010
   0.35000000  0.15000000  0.00000000       0.010
   0.40000000  0.15000000  0.00000000       0.010
   0.20000000  0.20000000  0.00000000       0.005
   0.25000000  0.20000000  0.00000000       0.010
   0.30000000  0.20000000  0.00000000       0.010
   0.35000000  0.20000000  0.00000000       0.010
   0.40000000  0.20000000  0.00000000       0.005
   0.25000000  0.25000000  0.00000000       0.005
   0.30000000  0.25000000  0.00000000       0.010
   0.35000000  0.25000000  0.00000000       0.010
   0.30000000  0.30000000  0.00000000       0.005
   0.35000000  0.30000000  0.00000000       0.005
   0.00000000  0.00000000  0.33333333       0.002
   0.05000000 -0.00000000  0.33333333       0.005
   0.10000000 -0.00000000  0.33333333       0.005
   0.15000000 -0.00000000  0.33333333       0.005
   0.20000000 -0.00000000  0.33333333       0.005
   0.25000000  0.00000000  0.33333333       0.005
   0.30000000 -0.00000000  0.33333333       0.005
   0.35000000 -0.00000000  0.33333333       0.005
   0.40000000 -0.00000000  0.33333333       0.005
   0.45000000 -0.00000000  0.33333333       0.005
   0.50000000  0.00000000  0.33333333       0.005
  -0.45000000  0.00000000  0.33333333       0.005
  -0.40000000  0.00000000  0.33333333       0.005
  -0.35000000  0.00000000  0.33333333       0.005
  -0.30000000  0.00000000  0.33333333       0.005
  -0.25000000  0.00000000  0.33333333       0.005
  -0.20000000  0.00000000  0.33333333       0.005
  -0.15000000  0.00000000  0.33333333       0.005
  -0.10000000  0.00000000  0.33333333       0.005
  -0.05000000  0.00000000  0.33333333       0.005
   0.05000000  0.05000000  0.33333333       0.010
   0.10000000  0.05000000  0.33333333       0.010
   0.15000000  0.05000000  0.33333333       0.010
   0.20000000  0.05000000  0.33333333       0.010
   0.25000000  0.05000000  0.33333333       0.010
   0.30000000  0.05000000  0.33333333       0.010
   0.35000000  0.05000000  0.33333333       0.010
   0.40000000  0.05000000  0.33333333       0.010
   0.45000000  0.05000000  0.33333333       0.010
   0.50000000  0.05000000  0.33333333       0.010
  -0.45000000  0.05000000  0.33333333       0.010
  -0.40000000  0.05000000  0.33333333       0.010
  -0.35000000  0.05000000  0.33333333       0.010
  -0.30000000  0.05000000  0.33333333       0.010
  -0.25000000  0.05000000  0.33333333       0.010
  -0.20000000  0.05000000  0.33333333       0.010
  -0.15000000  0.05000000  0.33333333       0.010
   0.10000000  0.10000000  0.33333333       0.010
   0.15000000  0.10000000  0.33333333       0.010
   0.20000000  0.10000000  0.33333333       0.010
   0.25000000  0.10000000  0.33333333       0.010
   0.30000000  0.10000000  0.33333333       0.010
   0.35000000  0.10000000  0.33333333       0.010
   0.40000000  0.10000000  0.33333333       0.010
   0.45000000  0.10000000  0.33333333       0.010
   0.50000000  0.10000000  0.33333333       0.010
  -0.45000000  0.10000000  0.33333333       0.010
  -0.40000000  0.10000000  0.33333333       0.010
  -0.35000000  0.10000000  0.33333333       0.010
  -0.30000000  0.10000000  0.33333333       0.010
  -0.25000000  0.10000000  0.33333333       0.010
   0.15000000  0.15000000  0.33333333       0.010
   0.20000000  0.15000000  0.33333333       0.010
   0.25000000  0.15000000  0.33333333       0.010
   0.30000000  0.15000000  0.33333333       0.010
   0.35000000  0.15000000  0.33333333       0.010
   0.40000000  0.15000000  0.33333333       0.010
   0.45000000  0.15000000  0.33333333       0.010
   0.50000000  0.15000000  0.33333333       0.010
  -0.45000000  0.15000000  0.33333333       0.010
  -0.40000000  0.15000000  0.33333333       0.010
  -0.35000000  0.15000000  0.33333333       0.010
   0.20000000  0.20000000  0.33333333       0.010
   0.25000000  0.20000000  0.33333333       0.010
   0.30000000  0.20000000  0.33333333       0.010
   0.35000000  0.20000000  0.33333333       0.010
   0.40000000  0.20000000  0.33333333       0.010
   0.45000000  0.20000000  0.33333333       0.010
   0.50000000  0.20000000  0.33333333       0.010
  -0.45000000  0.20000000  0.33333333       0.010
   0.25000000  0.25000000  0.33333333       0.010
   0.30000000  0.25000000  0.33333333       0.010
   0.35000000  0.25000000  0.33333333       0.010
   0.40000000  0.25000000  0.33333333       0.010
   0.45000000  0.25000000  0.33333333       0.010
   0.30000000  0.30000000  0.33333333       0.010
   0.35000000  0.30000000  0.33333333       0.010
 
 position of ions in fractional coordinates (direct lattice) 
   0.33333330  0.66666670  0.93767263
   0.33333330  0.66666670  0.12482737
   0.17190664  0.34381318  0.74950117
   0.49476006  0.98952012  0.31299883
   0.49465044  0.50534956  0.81263080
   0.49476006  0.50523994  0.31299883
   0.65618682  0.82809336  0.74950117
   0.65596757  0.82798374  0.24986920
   0.17190664  0.82809336  0.74950117
   0.17201626  0.82798374  0.24986920
   0.01047988  0.50523994  0.31299883
   0.17201626  0.34403243  0.24986920
   0.99789874  0.49894937  0.68712730
   0.99838155  0.49919078  0.18724975
   0.50105063  0.00210126  0.68712730
   0.50080922  0.00161845  0.18724975
   0.50105063  0.49894937  0.68712730
   0.50080922  0.49919078  0.18724975
   0.49465044  0.98930087  0.81263080
   0.83302721  0.66605453  0.12498646
   0.01069913  0.50534956  0.81263080
   0.16561607  0.33123204  0.37537270
   0.16585748  0.33171485  0.87525025
   0.16561607  0.83438393  0.37537270
   0.16585748  0.83414252  0.87525025
   0.66876796  0.83438393  0.37537270
   0.66828515  0.83414252  0.87525025
   0.33348697  0.16674353  0.43765236
   0.33272113  0.16636061  0.93751354
   0.83325647  0.16674353  0.43765236
   0.83363939  0.16636061  0.93751354
   0.83325647  0.66651303  0.43765236
   0.83363939  0.66727887  0.93751354
   0.83341013  0.66682037  0.62484764
   0.49985562  0.50014438  0.99971766
   0.49998838  0.50001162  0.50003646
   0.49985562  0.99971125  0.99971766
   0.49998838  0.99997676  0.50003646
   0.00028875  0.50014438  0.99971766
   0.00002324  0.50001162  0.50003646
   0.16681108  0.33362205  0.06278234
   0.16667832  0.33335654  0.56246354
   0.16681108  0.83318892  0.06278234
   0.16667832  0.83332168  0.56246354
   0.66637795  0.83318892  0.06278234
   0.66664346  0.83332168  0.56246354
   0.33394547  0.16697279  0.12498646
   0.33317963  0.16658987  0.62484764
   0.83302721  0.16697279  0.12498646
   0.83341013  0.16658987  0.62484764
   0.00000000  0.00000000  0.49981528
   0.66666670  0.33333330  0.06094244
   0.66666670  0.33333330  0.56268472
   0.33333330  0.66666670  0.62540806
   0.00000000  0.00000000  0.18801230
   0.00000000  0.00000000  0.68919127
   0.66666670  0.33333330  0.24973859
   0.66666670  0.33333330  0.75236194
   0.00000000  0.00000000  0.31013806
   0.00000000  0.00000000  0.81276141
   0.66666670  0.33333330  0.37330873
   0.66666670  0.33333330  0.87448770
   0.33333330  0.66666670  0.43709194
   0.00000000  0.00000000  0.00155756
 
 position of ions in cartesian coordinates  (Angst):
  -0.00000025  2.93962655 31.15904205
  -0.00000025  2.93962655  4.14803749
   0.00000025  1.51602346 24.90606826
  -0.00000000  4.36322919 10.40101127
   1.23203878  2.22830838 27.00387803
   1.23287600  2.22782501 10.40101127
   1.23287626  3.65142765 24.90606826
   1.23203903  3.65094428  8.30320151
  -1.23287575  3.65142765 24.90606826
  -1.23203852  3.65094428  8.30320151
  -1.23287600  2.22782501 10.40101127
   0.00000025  1.51699021  8.30320151
   3.81066211  2.20008711 22.83337244
   3.81250581  2.20115157  6.22234513
   2.54579078  0.00926537 22.83337244
   2.54579078  0.00713646  6.22234513
   1.28091944  2.20008711 22.83337244
   1.27907574  2.20115157  6.22234513
  -0.00000000  4.36226244 27.00387803
   2.54579052  2.93692721  4.15332398
  -1.23203878  2.22830838 27.00387803
   0.00000025  1.46054768 12.47370710
   0.00000025  1.46267660 29.08473440
  -1.28091918  3.67916554 12.47370710
  -1.27907548  3.67810108 29.08473440
   1.28091969  3.67916554 12.47370710
   1.27907599  3.67810108 29.08473440
   1.27348195  0.73524554 14.54327205
   1.27055744  0.73355708 31.15375556
   3.81809910  0.73524554 14.54327205
   3.82102360  0.73355708 31.15375556
   2.54579052  2.93894896 14.54327205
   2.54579052  2.94232588 31.15375556
   2.54579052  2.94030414 20.76380748
   1.27179274  2.20535641 33.22081023
   1.27280664  2.20477104 16.61630771
  -0.00000000  4.40816638 33.22081023
  -0.00000000  4.40933712 16.61630771
  -1.27179274  2.20535641 33.22081023
  -1.27280664  2.20477104 16.61630771
   0.00000025  1.47108628  2.08626931
   0.00000025  1.46991554 18.69077183
  -1.27179249  3.67389624  2.08626931
  -1.27280638  3.67448161 18.69077183
   1.27179300  3.67389624  2.08626931
   1.27280689  3.67448161 18.69077183
   1.27523283  0.73625642  4.15332398
   1.27230832  0.73456795 20.76380748
   3.81634822  0.73625642  4.15332398
   3.81927272  0.73456795 20.76380748
   0.00000000  0.00000000 16.60895795
   2.54579103  1.46981305  2.02512907
   2.54579103  1.46981305 18.69812159
  -0.00000025  2.93962655 20.78243008
   0.00000000  0.00000000  6.24768497
   0.00000000  0.00000000 22.90195861
   2.54579103  1.46981305  8.29886129
   2.54579103  1.46981305 25.00113220
   0.00000000  0.00000000 10.30594734
   0.00000000  0.00000000 27.00821825
   2.54579103  1.46981305 12.40512093
   2.54579103  1.46981305 29.05939457
  -0.00000025  2.93962655 14.52464946
   0.00000000  0.00000000  0.05175796
 


--------------------------------------------------------------------------------------------------------


 k-point  1 :   0.0000 0.0000 0.0000  plane waves:   13543
 k-point  2 :   0.0500-0.0000 0.0000  plane waves:   13581
 k-point  3 :   0.1000-0.0000 0.0000  plane waves:   13591
 k-point  4 :   0.1500-0.0000 0.0000  plane waves:   13605
 k-point  5 :   0.2000-0.0000 0.0000  plane waves:   13580
 k-point  6 :   0.2500 0.0000 0.0000  plane waves:   13566
 k-point  7 :   0.3000-0.0000 0.0000  plane waves:   13550
 k-point  8 :   0.3500-0.0000 0.0000  plane waves:   13554
 k-point  9 :   0.4000-0.0000 0.0000  plane waves:   13540
 k-point 10 :   0.4500-0.0000 0.0000  plane waves:   13562
 k-point 11 :   0.5000 0.0000 0.0000  plane waves:   13590
 k-point 12 :   0.0500 0.0500 0.0000  plane waves:   13589
 k-point 13 :   0.1000 0.0500 0.0000  plane waves:   13608
 k-point 14 :   0.1500 0.0500 0.0000  plane waves:   13576
 k-point 15 :   0.2000 0.0500 0.0000  plane waves:   13548
 k-point 16 :   0.2500 0.0500 0.0000  plane waves:   13546
 k-point 17 :   0.3000 0.0500 0.0000  plane waves:   13535
 k-point 18 :   0.3500 0.0500 0.0000  plane waves:   13547
 k-point 19 :   0.4000 0.0500 0.0000  plane waves:   13553
 k-point 20 :   0.4500 0.0500 0.0000  plane waves:   13562
 k-point 21 :   0.1000 0.1000 0.0000  plane waves:   13593
 k-point 22 :   0.1500 0.1000 0.0000  plane waves:   13564
 k-point 23 :   0.2000 0.1000 0.0000  plane waves:   13541
 k-point 24 :   0.2500 0.1000 0.0000  plane waves:   13532
 k-point 25 :   0.3000 0.1000 0.0000  plane waves:   13532
 k-point 26 :   0.3500 0.1000 0.0000  plane waves:   13540
 k-point 27 :   0.4000 0.1000 0.0000  plane waves:   13557
 k-point 28 :   0.4500 0.1000 0.0000  plane waves:   13548
 k-point 29 :   0.1500 0.1500 0.0000  plane waves:   13557
 k-point 30 :   0.2000 0.1500 0.0000  plane waves:   13543
 k-point 31 :   0.2500 0.1500 0.0000  plane waves:   13545
 k-point 32 :   0.3000 0.1500 0.0000  plane waves:   13526
 k-point 33 :   0.3500 0.1500 0.0000  plane waves:   13539
 k-point 34 :   0.4000 0.1500 0.0000  plane waves:   13542
 k-point 35 :   0.2000 0.2000 0.0000  plane waves:   13522
 k-point 36 :   0.2500 0.2000 0.0000  plane waves:   13543
 k-point 37 :   0.3000 0.2000 0.0000  plane waves:   13543
 k-point 38 :   0.3500 0.2000 0.0000  plane waves:   13549
 k-point 39 :   0.4000 0.2000 0.0000  plane waves:   13550
 k-point 40 :   0.2500 0.2500 0.0000  plane waves:   13532
 k-point 41 :   0.3000 0.2500 0.0000  plane waves:   13548
 k-point 42 :   0.3500 0.2500 0.0000  plane waves:   13558
 k-point 43 :   0.3000 0.3000 0.0000  plane waves:   13556
 k-point 44 :   0.3500 0.3000 0.0000  plane waves:   13542
 k-point 45 :   0.0000 0.0000 0.3333  plane waves:   13560
 k-point 46 :   0.0500-0.0000 0.3333  plane waves:   13583
 k-point 47 :   0.1000-0.0000 0.3333  plane waves:   13601
 k-point 48 :   0.1500-0.0000 0.3333  plane waves:   13612
 k-point 49 :   0.2000-0.0000 0.3333  plane waves:   13572
 k-point 50 :   0.2500 0.0000 0.3333  plane waves:   13553
 k-point 51 :   0.3000-0.0000 0.3333  plane waves:   13545
 k-point 52 :   0.3500-0.0000 0.3333  plane waves:   13535
 k-point 53 :   0.4000-0.0000 0.3333  plane waves:   13553
 k-point 54 :   0.4500-0.0000 0.3333  plane waves:   13555
 k-point 55 :   0.5000 0.0000 0.3333  plane waves:   13548
 k-point 56 :  -0.4500 0.0000 0.3333  plane waves:   13555
 k-point 57 :  -0.4000 0.0000 0.3333  plane waves:   13553
 k-point 58 :  -0.3500 0.0000 0.3333  plane waves:   13535
 k-point 59 :  -0.3000 0.0000 0.3333  plane waves:   13545
 k-point 60 :  -0.2500 0.0000 0.3333  plane waves:   13553
 k-point 61 :  -0.2000 0.0000 0.3333  plane waves:   13572
 k-point 62 :  -0.1500 0.0000 0.3333  plane waves:   13612
 k-point 63 :  -0.1000 0.0000 0.3333  plane waves:   13601
 k-point 64 :  -0.0500 0.0000 0.3333  plane waves:   13583
 k-point 65 :   0.0500 0.0500 0.3333  plane waves:   13585
 k-point 66 :   0.1000 0.0500 0.3333  plane waves:   13597
 k-point 67 :   0.1500 0.0500 0.3333  plane waves:   13590
 k-point 68 :   0.2000 0.0500 0.3333  plane waves:   13554
 k-point 69 :   0.2500 0.0500 0.3333  plane waves:   13538
 k-point 70 :   0.3000 0.0500 0.3333  plane waves:   13526
 k-point 71 :   0.3500 0.0500 0.3333  plane waves:   13546
 k-point 72 :   0.4000 0.0500 0.3333  plane waves:   13556
 k-point 73 :   0.4500 0.0500 0.3333  plane waves:   13554
 k-point 74 :   0.5000 0.0500 0.3333  plane waves:   13554
 k-point 75 :  -0.4500 0.0500 0.3333  plane waves:   13556
 k-point 76 :  -0.4000 0.0500 0.3333  plane waves:   13546
 k-point 77 :  -0.3500 0.0500 0.3333  plane waves:   13526
 k-point 78 :  -0.3000 0.0500 0.3333  plane waves:   13538
 k-point 79 :  -0.2500 0.0500 0.3333  plane waves:   13554
 k-point 80 :  -0.2000 0.0500 0.3333  plane waves:   13590
 k-point 81 :  -0.1500 0.0500 0.3333  plane waves:   13597
 k-point 82 :   0.1000 0.1000 0.3333  plane waves:   13608
 k-point 83 :   0.1500 0.1000 0.3333  plane waves:   13565
 k-point 84 :   0.2000 0.1000 0.3333  plane waves:   13549
 k-point 85 :   0.2500 0.1000 0.3333  plane waves:   13536
 k-point 86 :   0.3000 0.1000 0.3333  plane waves:   13527
 k-point 87 :   0.3500 0.1000 0.3333  plane waves:   13544
 k-point 88 :   0.4000 0.1000 0.3333  plane waves:   13550
 k-point 89 :   0.4500 0.1000 0.3333  plane waves:   13542
 k-point 90 :   0.5000 0.1000 0.3333  plane waves:   13551
 k-point 91 :  -0.4500 0.1000 0.3333  plane waves:   13544
 k-point 92 :  -0.4000 0.1000 0.3333  plane waves:   13527
 k-point 93 :  -0.3500 0.1000 0.3333  plane waves:   13536
 k-point 94 :  -0.3000 0.1000 0.3333  plane waves:   13549
 k-point 95 :  -0.2500 0.1000 0.3333  plane waves:   13565
 k-point 96 :   0.1500 0.1500 0.3333  plane waves:   13548
 k-point 97 :   0.2000 0.1500 0.3333  plane waves:   13542
 k-point 98 :   0.2500 0.1500 0.3333  plane waves:   13528
 k-point 99 :   0.3000 0.1500 0.3333  plane waves:   13517
 k-point ** :   0.3500 0.1500 0.3333  plane waves:   13540
 k-point ** :   0.4000 0.1500 0.3333  plane waves:   13555
 k-point ** :   0.4500 0.1500 0.3333  plane waves:   13555
 k-point ** :   0.5000 0.1500 0.3333  plane waves:   13540
 k-point ** :  -0.4500 0.1500 0.3333  plane waves:   13517
 k-point ** :  -0.4000 0.1500 0.3333  plane waves:   13528
 k-point ** :  -0.3500 0.1500 0.3333  plane waves:   13542
 k-point ** :   0.2000 0.2000 0.3333  plane waves:   13537
 k-point ** :   0.2500 0.2000 0.3333  plane waves:   13532
 k-point ** :   0.3000 0.2000 0.3333  plane waves:   13539
 k-point ** :   0.3500 0.2000 0.3333  plane waves:   13546
 k-point ** :   0.4000 0.2000 0.3333  plane waves:   13557
 k-point ** :   0.4500 0.2000 0.3333  plane waves:   13546
 k-point ** :   0.5000 0.2000 0.3333  plane waves:   13539
 k-point ** :  -0.4500 0.2000 0.3333  plane waves:   13532
 k-point ** :   0.2500 0.2500 0.3333  plane waves:   13552
 k-point ** :   0.3000 0.2500 0.3333  plane waves:   13542
 k-point ** :   0.3500 0.2500 0.3333  plane waves:   13568
 k-point ** :   0.4000 0.2500 0.3333  plane waves:   13568
 k-point ** :   0.4500 0.2500 0.3333  plane waves:   13542
 k-point ** :   0.3000 0.3000 0.3333  plane waves:   13548
 k-point ** :   0.3500 0.3000 0.3333  plane waves:   13563

 maximum and minimum number of plane-waves per node :      2747     2679

 maximum number of plane-waves:     13612
 maximum index in each direction: 
   IXMAX=    8   IYMAX=    8   IZMAX=   54
   IXMIN=   -8   IYMIN=   -8   IZMIN=  -54

 WARNING: aliasing errors must be expected set NGX to  34 to avoid them
 WARNING: aliasing errors must be expected set NGY to  34 to avoid them
 WARNING: aliasing errors must be expected set NGZ to 218 to avoid them
 aliasing errors are usually negligible using standard VASP settings
 and one can safely disregard these warnings

 parallel 3D FFT for wavefunctions:
    minimum data exchange during FFTs selected (reduces bandwidth)
 parallel 3D FFT for charge:
    minimum data exchange during FFTs selected (reduces bandwidth)


 total amount of memory used by VASP on root node  1388478. kBytes
========================================================================

   base      :      30000. kBytes
   nonl-proj :     146457. kBytes
   fftplans  :       2743. kBytes
   grid      :       7254. kBytes
   one-center:        404. kBytes
   wavefun   :    1201620. kBytes
 
     INWAV:  cpu time    0.0000: real time    0.0001
 Broyden mixing: mesh for mixing (old mesh)
   NGX = 17   NGY = 17   NGZ =109
  (NGX  = 56   NGY  = 56   NGZ  =336)
  gives a total of  31501 points

 initial charge density was supplied:
 charge density of overlapping atoms calculated
 number of electron     654.0000000 magnetization      48.0000000
 keeping initial charge density in first step


--------------------------------------------------------------------------------------------------------


 Maximum index for augmentation-charges          390 (set IRDMAX)


--------------------------------------------------------------------------------------------------------


 First call to EWALD:  gamma=   0.195
 Maximum number of real-space cells 5x 5x 1
 Maximum number of reciprocal cells 2x 2x 9

 FEWALD executed in parallel
    FEWALD:  cpu time    0.0035: real time    0.0035


----------------------------------------- Iteration    1(   1)  ---------------------------------------


    POTLOK:  cpu time    0.0715: real time    0.0728
    SETDIJ:  cpu time    0.0253: real time    0.0253
    EDDIAG:  cpu time   47.5996: real time   47.7501
  RMM-DIIS:  cpu time  204.8397: real time  205.1769
    ORTHCH:  cpu time   14.8010: real time   14.8352
 BZINTS: Fermi energy: 18.221419;654.000000 electrons
         Band energy:4201.509275;  BLOECHL correction: -1.371113
       DOS:  cpu time    2.7166: real time    2.7184
    --------------------------------------------
      LOOP:  cpu time  270.0557: real time  270.5817

 eigenvalue-minimisations  :100672
 total energy-change (2. order) : 0.1831740E+04  (-0.2525538E+05)
 number of electron     654.0000000 magnetization      48.0000000
 augmentation part      654.0000000 magnetization      48.0000000

 Free energy of the ion-electron system (eV)
  ---------------------------------------------------
  alpha Z        PSCENC =      3160.76067069
  Ewald energy   TEWEN  =    -60290.32595716
  -Hartree energ DENC   =    -18789.44927572
  -exchange      EXHF   =         0.00000000
  -V(xc)+E(xc)   XCENC  =      2351.35494570
  PAW double counting   =     64052.30531756   -66922.40966197
  entropy T*S    EENTRO =         0.00000000
  eigenvalues    EBANDS =      4201.50927509
  atomic energy  EATOM  =     74067.99487448
  Solvation  Ediel_sol  =         0.00000000
  ---------------------------------------------------
  free energy    TOTEN  =      1831.74018867 eV

  energy without entropy =     1831.74018867  energy(sigma->0) =     1831.74018867


--------------------------------------------------------------------------------------------------------




----------------------------------------- Iteration    1(   2)  ---------------------------------------


    EDDIAG:  cpu time   47.7047: real time   47.7827
  RMM-DIIS:  cpu time  204.8058: real time  205.2272
    ORTHCH:  cpu time   14.7359: real time   14.7925
 BZINTS: Fermi energy: 12.926797;654.000000 electrons
         Band energy:2377.876999;  BLOECHL correction: -0.370802
       DOS:  cpu time    2.8156: real time    2.8172
    --------------------------------------------
      LOOP:  cpu time  270.1460: real time  270.7039

 eigenvalue-minimisations  :100672
 total energy-change (2. order) :-0.1823632E+04  (-0.4179608E+04)
 number of electron     654.0000000 magnetization      48.0000000
 augmentation part      654.0000000 magnetization      48.0000000

 Free energy of the ion-electron system (eV)
  ---------------------------------------------------
  alpha Z        PSCENC =      3160.76067069
  Ewald energy   TEWEN  =    -60290.32595716
  -Hartree energ DENC   =    -18789.44927572
  -exchange      EXHF   =         0.00000000
  -V(xc)+E(xc)   XCENC  =      2351.35494570
  PAW double counting   =     64052.30531756   -66922.40966197
  entropy T*S    EENTRO =         0.00000000
  eigenvalues    EBANDS =      2377.87699883
  atomic energy  EATOM  =     74067.99487448
  Solvation  Ediel_sol  =         0.00000000
  ---------------------------------------------------
  free energy    TOTEN  =         8.10791240 eV

  energy without entropy =        8.10791240  energy(sigma->0) =        8.10791240


--------------------------------------------------------------------------------------------------------




----------------------------------------- Iteration    1(   3)  ---------------------------------------


    EDDIAG:  cpu time   47.8141: real time   47.8819
  RMM-DIIS:  cpu time  204.7240: real time  205.2788
    ORTHCH:  cpu time   14.7642: real time   14.8184
 BZINTS: Fermi energy: 11.924227;654.000000 electrons
         Band energy:2217.695011;  BLOECHL correction: -0.371170
       DOS:  cpu time    2.3624: real time    2.3638
    --------------------------------------------
      LOOP:  cpu time  269.7622: real time  270.4408

 eigenvalue-minimisations  :100672
 total energy-change (2. order) :-0.1601820E+03  (-0.4708602E+03)
 number of electron     654.0000000 magnetization      48.0000000
 augmentation part      654.0000000 magnetization      48.0000000

 Free energy of the ion-electron system (eV)
  ---------------------------------------------------
  alpha Z        PSCENC =      3160.76067069
  Ewald energy   TEWEN  =    -60290.32595716
  -Hartree energ DENC   =    -18789.44927572
  -exchange      EXHF   =         0.00000000
  -V(xc)+E(xc)   XCENC  =      2351.35494570
  PAW double counting   =     64052.30531756   -66922.40966197
  entropy T*S    EENTRO =         0.00000000
  eigenvalues    EBANDS =      2217.69501059
  atomic energy  EATOM  =     74067.99487448
  Solvation  Ediel_sol  =         0.00000000
  ---------------------------------------------------
  free energy    TOTEN  =      -152.07407583 eV

  energy without entropy =     -152.07407583  energy(sigma->0) =     -152.07407583


--------------------------------------------------------------------------------------------------------




----------------------------------------- Iteration    1(   4)  ---------------------------------------


    EDDIAG:  cpu time   47.9925: real time   48.0759
  RMM-DIIS:  cpu time  204.8520: real time  205.2796
[...]
   -.457E-05 -.889E+01 -.220E+03   -.796E-06 0.900E+01 0.220E+03   0.173E-17 -.110E+00 -.461E+00   -.215E-08 0.426E-03 0.178E-01
   0.246E-05 0.676E+02 0.510E+03   -.135E-04 -.672E+02 -.510E+03   -.347E-17 -.389E+00 -.113E+00   0.139E-08 0.207E-02 -.861E-01
   -.770E+01 0.445E+01 -.220E+03   0.780E+01 -.450E+01 0.220E+03   -.951E-01 0.549E-01 -.461E+00   0.369E-03 -.213E-03 0.178E-01
   0.586E+02 -.338E+02 0.510E+03   -.582E+02 0.336E+02 -.510E+03   -.337E+00 0.194E+00 -.113E+00   0.180E-02 -.104E-02 -.861E-01
   -.356E-05 -.907E+01 -.406E+03   0.592E-06 0.821E+01 0.406E+03   -.382E-16 0.856E+00 -.395E+00   -.755E-07 0.123E-02 0.669E-01
   0.317E-05 0.247E+00 0.226E+03   0.928E-05 -.254E+00 -.226E+03   -.410E-18 0.129E-01 0.228E+00   0.150E-08 0.150E-02 -.673E-01
   0.786E+01 0.454E+01 -.406E+03   -.711E+01 -.410E+01 0.406E+03   -.741E+00 -.428E+00 -.395E+00   -.106E-02 -.614E-03 0.669E-01
   0.459E-04 0.889E+01 0.220E+03   -.534E-05 -.900E+01 -.220E+03   -.173E-17 0.110E+00 0.461E+00   0.163E-08 -.426E-03 -.178E-01
   0.589E-04 -.676E+02 -.510E+03   -.250E-04 0.672E+02 0.510E+03   0.104E-16 0.389E+00 0.113E+00   -.962E-09 -.207E-02 0.861E-01
   0.770E+01 -.445E+01 0.220E+03   -.780E+01 0.450E+01 -.220E+03   0.951E-01 -.549E-01 0.461E+00   -.369E-03 0.213E-03 -.178E-01
   -.586E+02 0.338E+02 -.510E+03   0.582E+02 -.336E+02 0.510E+03   0.337E+00 -.194E+00 0.113E+00   -.180E-02 0.104E-02 0.861E-01
   -.770E+01 -.445E+01 0.220E+03   0.780E+01 0.450E+01 -.220E+03   -.951E-01 -.549E-01 0.461E+00   0.369E-03 0.213E-03 -.178E-01
   0.586E+02 0.338E+02 -.510E+03   -.582E+02 -.336E+02 0.510E+03   -.337E+00 -.194E+00 0.113E+00   0.180E-02 0.104E-02 0.861E-01
   -.757E+01 -.437E+01 0.138E+03   0.772E+01 0.446E+01 -.138E+03   -.152E+00 -.877E-01 0.298E+00   -.171E-03 -.985E-04 -.657E-02
   0.214E+00 0.124E+00 -.226E+03   -.220E+00 -.127E+00 0.226E+03   0.112E-01 0.645E-02 -.228E+00   0.130E-02 0.749E-03 0.673E-01
   0.757E+01 -.437E+01 0.138E+03   -.772E+01 0.446E+01 -.138E+03   0.152E+00 -.877E-01 0.298E+00   0.171E-03 -.985E-04 -.657E-02
   -.214E+00 0.124E+00 -.226E+03   0.220E+00 -.127E+00 0.226E+03   -.112E-01 0.645E-02 -.228E+00   -.130E-02 0.749E-03 0.673E-01
   -.463E-04 0.874E+01 0.138E+03   0.812E-05 -.892E+01 -.138E+03   -.520E-17 0.175E+00 0.298E+00   0.153E-08 0.197E-03 -.657E-02
   0.137E-06 -.247E+00 -.226E+03   0.799E-05 0.254E+00 0.226E+03   0.352E-18 -.129E-01 -.228E+00   -.945E-09 -.150E-02 0.673E-01
   -.475E-04 -.874E+01 -.138E+03   0.736E-05 0.892E+01 0.138E+03   0.347E-17 -.175E+00 -.298E+00   -.690E-09 -.197E-03 0.657E-02
   0.639E+02 -.369E+02 0.644E+02   -.637E+02 0.368E+02 -.642E+02   -.250E+00 0.144E+00 -.204E+00   -.126E-03 0.730E-04 0.238E-01
   0.864E+00 -.499E+00 0.450E+02   -.868E+00 0.501E+00 -.450E+02   0.577E-02 -.333E-02 0.774E-01   0.145E-03 -.839E-04 -.171E-02
   0.919E-05 0.738E+02 0.644E+02   -.129E-04 -.735E+02 -.642E+02   0.000E+00 -.288E+00 -.204E+00   -.109E-08 -.146E-03 0.238E-01
   0.276E-05 0.997E+00 0.450E+02   -.130E-06 -.100E+01 -.450E+02   -.217E-18 0.666E-02 0.774E-01   -.184E-09 0.168E-03 -.171E-02
   -.639E+02 -.369E+02 0.644E+02   0.637E+02 0.368E+02 -.642E+02   0.250E+00 0.144E+00 -.204E+00   0.126E-03 0.730E-04 0.238E-01
   -.864E+00 -.499E+00 0.450E+02   0.868E+00 0.501E+00 -.450E+02   -.577E-02 -.333E-02 0.774E-01   -.145E-03 -.839E-04 -.171E-02
   0.588E-04 -.738E+02 -.644E+02   -.277E-04 0.735E+02 0.642E+02   0.000E+00 0.288E+00 0.204E+00   0.925E-09 0.146E-03 -.238E-01
   0.440E-04 -.997E+00 -.450E+02   -.725E-05 0.100E+01 0.450E+02   0.108E-18 -.666E-02 -.774E-01   -.469E-10 -.168E-03 0.171E-02
   -.639E+02 0.369E+02 -.644E+02   0.637E+02 -.368E+02 0.642E+02   0.250E+00 -.144E+00 0.204E+00   0.126E-03 -.730E-04 -.238E-01
   -.863E+00 0.499E+00 -.450E+02   0.868E+00 -.501E+00 0.450E+02   -.577E-02 0.333E-02 -.774E-01   -.145E-03 0.839E-04 0.171E-02
   0.639E+02 0.369E+02 -.644E+02   -.637E+02 -.368E+02 0.642E+02   -.250E+00 -.144E+00 0.204E+00   -.126E-03 -.730E-04 -.238E-01
   0.864E+00 0.498E+00 -.450E+02   -.868E+00 -.501E+00 0.450E+02   0.577E-02 0.333E-02 -.774E-01   0.145E-03 0.839E-04 0.171E-02
   -.214E+00 -.124E+00 0.226E+03   0.220E+00 0.127E+00 -.226E+03   -.112E-01 -.645E-02 0.228E+00   -.130E-02 -.749E-03 -.673E-01
   0.757E+01 0.437E+01 -.138E+03   -.772E+01 -.446E+01 0.138E+03   0.152E+00 0.877E-01 -.298E+00   0.171E-03 0.985E-04 0.657E-02
   0.214E+00 -.124E+00 0.226E+03   -.220E+00 0.127E+00 -.226E+03   0.112E-01 -.645E-02 0.228E+00   0.130E-02 -.749E-03 -.673E-01
   -.757E+01 0.437E+01 -.138E+03   0.772E+01 -.446E+01 0.138E+03   -.152E+00 0.877E-01 -.298E+00   -.171E-03 0.985E-04 0.657E-02
   -.670E-04 0.395E-04 0.498E+02   -.245E-06 -.186E-06 -.498E+02   0.000E+00 0.000E+00 0.430E-01   0.370E-09 -.149E-09 -.219E-02
   -.580E-03 0.324E-03 -.287E+02   -.427E-05 0.184E-04 0.286E+02   0.434E-18 0.000E+00 0.641E-01   -.867E-08 0.521E-08 -.275E-01
   -.571E-03 0.328E-03 -.498E+02   -.224E-04 0.132E-04 0.498E+02   0.000E+00 0.000E+00 -.430E-01   -.669E-09 0.322E-09 0.219E-02
   0.497E-03 -.289E-03 -.154E+03   0.220E-04 -.106E-04 0.154E+03   0.542E-19 -.217E-18 0.108E-01   0.120E-08 -.716E-09 0.820E-02
   -.729E-04 0.551E-04 0.535E+03   0.124E-04 -.222E-04 -.534E+03   0.434E-17 -.347E-17 -.322E+00   0.107E-08 -.254E-09 -.105E+00
   -.716E-04 0.323E-04 -.247E+03   0.406E-05 0.101E-05 0.247E+03   -.260E-17 0.000E+00 -.381E+00   -.332E-08 0.201E-08 0.218E-01
   -.565E-03 0.338E-03 0.454E+03   -.174E-04 -.393E-05 -.454E+03   -.867E-18 0.000E+00 -.923E-03   0.301E-07 -.177E-07 -.807E-01
   -.565E-03 0.337E-03 -.348E+03   -.185E-04 -.610E-05 0.349E+03   -.173E-17 0.867E-18 -.331E+00   0.216E-07 -.128E-07 0.453E-01
   -.692E-04 0.319E-04 0.348E+03   0.181E-04 0.632E-05 -.349E+03   0.173E-17 -.867E-18 0.331E+00   -.204E-07 0.121E-07 -.453E-01
   -.680E-04 0.267E-04 -.454E+03   0.188E-04 0.312E-05 0.454E+03   0.867E-18 0.000E+00 0.923E-03   -.285E-07 0.168E-07 0.807E-01
   -.562E-03 0.332E-03 0.247E+03   -.240E-04 0.105E-04 -.247E+03   0.434E-17 0.000E+00 0.381E+00   0.371E-08 -.223E-08 -.218E-01
   -.576E-03 0.319E-03 -.535E+03   -.786E-05 0.196E-04 0.534E+03   -.867E-18 0.347E-17 0.322E+00   -.946E-09 0.182E-09 0.105E+00
   0.498E-03 -.283E-03 0.154E+03   0.226E-04 -.151E-04 -.154E+03   -.163E-18 0.217E-18 -.108E-01   -.913E-09 0.547E-09 -.820E-02
   -.722E-04 0.520E-04 0.287E+02   0.117E-04 -.227E-04 -.286E+02   0.000E+00 0.867E-18 -.641E-01   0.890E-08 -.534E-08 0.275E-01
 -----------------------------------------------------------------------------------------------
   -.206E-02 0.118E-02 -.601E-03   -.609E-12 -.915E-13 0.185E-12   0.200E-15 0.223E-15 -.236E-15   0.453E-08 -.262E-08 0.671E-07
 
 
 POSITION                                       TOTAL-FORCE (eV/Angst)
 -----------------------------------------------------------------------------------
     -0.00000      2.93963     31.15904         0.000000      0.000000      0.002237
     -0.00000      2.93963      4.14804         0.000000      0.000000     -0.002237
      0.00000      1.51602     24.90607         0.000000      0.000234      0.007936
     -0.00000      4.36323     10.40101         0.000000     -0.000234     -0.007936
      1.23204      2.22831     27.00388        -0.007074      0.004084      0.025504
      1.23288      2.22783     10.40101        -0.000203      0.000117     -0.007936
      1.23288      3.65143     24.90607        -0.000203     -0.000117      0.007936
      1.23204      3.65094      8.30320        -0.007074     -0.004084     -0.025504
     -1.23288      3.65143     24.90607         0.000203     -0.000117      0.007936
     -1.23204      3.65094      8.30320         0.007074     -0.004084     -0.025504
     -1.23288      2.22783     10.40101         0.000203      0.000117     -0.007936
      0.00000      1.51699      8.30320        -0.000000      0.008169     -0.025504
      3.81066      2.20009     22.83337        -0.002438     -0.001408      0.002382
      3.81251      2.20115      6.22235        -0.009692     -0.005596     -0.012173
      2.54579      0.00927     22.83337         0.000000      0.002816      0.002382
      2.54579      0.00714      6.22235         0.000000      0.011192     -0.012173
      1.28092      2.20009     22.83337         0.002438     -0.001408      0.002382
      1.27908      2.20115      6.22235         0.009692     -0.005596     -0.012173
     -0.00000      4.36226     27.00388         0.000000     -0.008169      0.025504
      2.54579      2.93693      4.15332        -0.000000      0.007962      0.001383
     -1.23204      2.22831     27.00388         0.007074      0.004084      0.025504
      0.00000      1.46055     12.47371        -0.000000     -0.002816     -0.002382
      0.00000      1.46268     29.08473         0.000000     -0.011192      0.012173
     -1.28092      3.67917     12.47371        -0.002438      0.001408     -0.002382
     -1.27908      3.67810     29.08473        -0.009692      0.005596      0.012173
      1.28092      3.67917     12.47371         0.002438      0.001408     -0.002382
      1.27908      3.67810     29.08473         0.009692      0.005596      0.012173
      1.27348      0.73525     14.54327         0.001261      0.000728     -0.005857
      1.27056      0.73356     31.15376         0.006895      0.003981     -0.001383
      3.81810      0.73525     14.54327        -0.001261      0.000728     -0.005857
      3.82102      0.73356     31.15376        -0.006895      0.003981     -0.001383
      2.54579      2.93895     14.54327         0.000000     -0.001456     -0.005857
      2.54579      2.94233     31.15376         0.000000     -0.007962     -0.001383
      2.54579      2.94030     20.76381         0.000000      0.001456      0.005857
      1.27179      2.20536     33.22081        -0.007788      0.004497     -0.009018
      1.27281      2.20477     16.61631         0.000987     -0.000570      0.000103
     -0.00000      4.40817     33.22081        -0.000000     -0.008993     -0.009018
     -0.00000      4.40934     16.61631         0.000000      0.001140      0.000103
     -1.27179      2.20536     33.22081         0.007788      0.004497     -0.009018
     -1.27281      2.20477     16.61631        -0.000987     -0.000570      0.000103
      0.00000      1.47109      2.08627         0.000000      0.008993      0.009018
      0.00000      1.46992     18.69077         0.000000     -0.001140     -0.000103
     -1.27179      3.67390      2.08627         0.007788     -0.004497      0.009018
     -1.27281      3.67448     18.69077        -0.000987      0.000570     -0.000103
      1.27179      3.67390      2.08627        -0.007788     -0.004497      0.009018
      1.27281      3.67448     18.69077         0.000987      0.000570     -0.000103
      1.27523      0.73626      4.15332        -0.006895     -0.003981      0.001383
      1.27231      0.73457     20.76381        -0.001261     -0.000728      0.005857
      3.81635      0.73626      4.15332         0.006895     -0.003981      0.001383
      3.81927      0.73457     20.76381         0.001261     -0.000728      0.005857
      0.00000      0.00000     16.60896        -0.000000      0.000000     -0.007823
      2.54579      1.46981      2.02513         0.000000      0.000000     -0.050620
      2.54579      1.46981     18.69812         0.000000      0.000000      0.007823
     -0.00000      2.93963     20.78243         0.000000      0.000000      0.015079
      0.00000      0.00000      6.24768         0.000000      0.000000     -0.038575
      0.00000      0.00000     22.90196         0.000000      0.000000      0.002481
      2.54579      1.46981      8.29886         0.000000      0.000000      0.005863
      2.54579      1.46981     25.00113         0.000000      0.000000      0.041548
      0.00000      0.00000     10.30595         0.000000      0.000000     -0.041548
      0.00000      0.00000     27.00822         0.000000      0.000000     -0.005863
      2.54579      1.46981     12.40512         0.000000      0.000000     -0.002481
      2.54579      1.46981     29.05939        -0.000000      0.000000      0.038575
     -0.00000      2.93963     14.52465         0.000000      0.000000     -0.015079
      0.00000      0.00000      0.05176        -0.000000      0.000000      0.050620
 -----------------------------------------------------------------------------------
    total drift:                               -0.002063      0.001183     -0.000601


--------------------------------------------------------------------------------------------------------



  FREE ENERGIE OF THE ION-ELECTRON SYSTEM (eV)
  ---------------------------------------------------
  free  energy   TOTEN  =      -410.31671196 eV

  energy  without entropy=     -410.31671196  energy(sigma->0) =     -410.31671196
 


--------------------------------------------------------------------------------------------------------


    POTLOK:  cpu time    0.0946: real time    0.0946


--------------------------------------------------------------------------------------------------------


     LOOP+:  cpu time35905.8422: real time35995.0132
    4ORBIT:  cpu time    0.0000: real time    0.0000
 


 total charge     
 
# of ion     s       p       d       tot
----------------------------------------
  1        0.398   0.383   0.000   0.782
  2        0.398   0.383   0.000   0.782
  3        0.519   0.523   8.399   9.441
  4        0.519   0.523   8.399   9.441
  5        0.516   0.531   8.455   9.501
  6        0.514   0.528   8.447   9.489
  7        0.549   0.506   8.189   9.244
  8        0.552   0.508   8.181   9.241
  9        0.514   0.528   8.447   9.489
 10        0.516   0.531   8.455   9.501
 11        0.549   0.506   8.189   9.244
 12        0.522   0.526   8.404   9.452
 13        0.545   0.489   8.198   9.232
 14        0.535   0.480   8.217   9.232
 15        0.519   0.511   8.401   9.431
 16        0.510   0.507   8.413   9.430
 17        0.514   0.517   8.447   9.478
 18        0.506   0.513   8.458   9.477
 19        0.522   0.526   8.404   9.451
 20        0.491   0.488   8.332   9.311
 21        0.552   0.508   8.181   9.241
 22        0.519   0.511   8.401   9.431
 23        0.510   0.507   8.413   9.430
 24        0.514   0.517   8.447   9.478
 25        0.506   0.513   8.458   9.477
 26        0.545   0.489   8.198   9.232
 27        0.535   0.480   8.217   9.232
 28        0.545   0.489   8.190   9.224
 29        0.507   0.507   8.440   9.455
 30        0.510   0.521   8.449   9.481
 31        0.489   0.485   8.328   9.302
 32        0.515   0.515   8.403   9.432
 33        0.491   0.488   8.331   9.310
 34        0.515   0.515   8.403   9.432
 35        0.501   0.520   8.455   9.476
 36        0.510   0.522   8.449   9.482
 37        0.506   0.513   8.412   9.431
 38        0.516   0.516   8.404   9.435
 39        0.535   0.482   8.215   9.232
 40        0.547   0.492   8.190   9.228
 41        0.506   0.513   8.412   9.431
 42        0.516   0.516   8.404   9.435
 43        0.501   0.520   8.456   9.477
 44        0.510   0.522   8.449   9.482
 45        0.535   0.482   8.215   9.232
 46        0.547   0.492   8.190   9.229
 47        0.507   0.507   8.441   9.455
 48        0.545   0.489   8.190   9.224
 49        0.489   0.485   8.328   9.303
 50        0.510   0.521   8.450   9.481
 51        2.258   6.180   1.881  10.319
 52        2.259   6.177   1.882  10.318
 53        2.258   6.180   1.881  10.319
 54        2.258   6.180   1.881  10.319
 55        2.252   6.177   1.880  10.309
 56        2.251   6.181   1.882  10.314
 57        2.245   6.180   1.877  10.302
 58        2.249   6.178   1.879  10.306
 59        2.249   6.178   1.879  10.306
 60        2.245   6.180   1.877  10.302
 61        2.251   6.181   1.882  10.314
 62        2.252   6.177   1.880  10.309
 63        2.258   6.180   1.881  10.319
 64        2.259   6.177   1.882  10.318
------------------------------------------------
tot       57.286 111.650 427.279 596.214
 


 magnetization (x)
 
# of ion     s       p       d       tot
----------------------------------------
  1        0.000   0.000   0.000   0.000
  2        0.000   0.000   0.000   0.000
  3        0.000   0.000  -0.000  -0.000
  4        0.000   0.000  -0.000  -0.000
  5        0.000   0.000  -0.001  -0.001
  6        0.000   0.000  -0.000  -0.000
  7        0.000   0.000   0.000   0.000
  8        0.000   0.000  -0.001  -0.001
  9        0.000   0.000  -0.000  -0.000
 10        0.000   0.000  -0.001  -0.001
 11        0.000   0.000  -0.000  -0.000
 12        0.000   0.000  -0.001  -0.001
 13        0.000   0.000   0.000   0.000
 14        0.000   0.000  -0.002  -0.002
 15        0.000   0.000   0.000   0.000
 16        0.000   0.000  -0.002  -0.002
 17        0.000   0.000   0.000   0.000
 18        0.000   0.000  -0.002  -0.002
 19        0.000   0.000  -0.001  -0.001
 20        0.000   0.000  -0.003  -0.003
 21        0.000   0.000  -0.001  -0.001
 22        0.000   0.000  -0.000   0.000
 23        0.000   0.000  -0.002  -0.002
 24        0.000   0.000   0.000   0.000
 25        0.000   0.000  -0.002  -0.002
 26        0.000   0.000  -0.000  -0.000
 27        0.000   0.000  -0.002  -0.002
 28        0.000   0.000  -0.000  -0.000
 29        0.000   0.000  -0.003  -0.003
 30        0.000   0.000  -0.000  -0.000
 31        0.000   0.000  -0.003  -0.003
 32        0.000   0.000  -0.000  -0.000
 33        0.000   0.000  -0.003  -0.003
 34        0.000   0.000  -0.000  -0.000
 35        0.000   0.000  -0.002  -0.002
 36        0.000   0.000  -0.000  -0.000
 37        0.000   0.000  -0.002  -0.002
 38        0.000   0.000  -0.000  -0.000
 39        0.000   0.000  -0.002  -0.002
 40       -0.000   0.000  -0.000  -0.000
 41        0.000   0.000  -0.002  -0.002
 42        0.000   0.000  -0.000  -0.000
 43        0.000   0.000  -0.002  -0.001
 44        0.000   0.000  -0.000  -0.000
 45        0.000   0.000  -0.001  -0.001
 46       -0.000   0.000  -0.000  -0.000
 47        0.000   0.000  -0.002  -0.002
 48        0.000   0.000  -0.000  -0.000
 49        0.000   0.000  -0.003  -0.003
 50        0.000   0.000  -0.000   0.000
 51        0.000   0.000   0.000   0.000
 52        0.000   0.000   0.001   0.001
 53        0.000   0.000   0.000   0.000
 54        0.000   0.000   0.000   0.000
 55        0.000   0.000   0.001   0.001
 56        0.000   0.000   0.000   0.000
 57        0.000   0.000   0.001   0.001
 58        0.000   0.000   0.000   0.000
 59        0.000   0.000   0.000   0.000
 60        0.000   0.000   0.001   0.001
 61        0.000   0.000   0.000   0.000
 62        0.000   0.000   0.001   0.001
 63        0.000   0.000   0.000   0.000
 64        0.000   0.000   0.001   0.001
------------------------------------------------
tot        0.001   0.002  -0.039  -0.036
 
 BZINTS: Fermi energy:  9.821003;654.000000 electrons
         Band energy: 698.875215;  BLOECHL correction: -0.011511

 total amount of memory used by VASP on root node  1388478. kBytes
========================================================================

   base      :      30000. kBytes
   nonl-proj :     146457. kBytes
   fftplans  :       2743. kBytes
   grid      :       7254. kBytes
   one-center:        404. kBytes
   wavefun   :    1201620. kBytes
 
  
  
 General timing and accounting informations for this job:
 ========================================================
  
                  Total CPU time used (sec):    36181.801
                            User time (sec):    36123.589
                          System time (sec):       58.211
                         Elapsed time (sec):    36272.748
  
                   Maximum memory used (kb):     1908232.
                   Average memory used (kb):           0.
  
                          Minor page faults:      2325633
                          Major page faults:            0
                 Voluntary context switches:        16134
