Test of VASP submission                 
           1
     5.091582    0.000000    0.000000
    -2.545791    4.409440    0.000000
     0.000000    0.000000   33.230193
   Al   Ni   Ti
   2  48  14
Direct configuration=     1
   0.33333330  0.66666670  0.93767263
   0.33333330  0.66666670  0.12482737
   0.17190664  0.34381318  0.74950117
   0.49476006  0.98952012  0.31299883
   0.49465044  0.50534956  0.81263080
   0.49476006  0.50523994  0.31299883
   0.65618682  0.82809336  0.74950117
   0.65596757  0.82798374  0.24986920
   0.17190664  0.82809336  0.74950117
   0.17201626  0.82798374  0.24986920
   0.01047988  0.50523994  0.31299883
   0.17201626  0.34403243  0.24986920
   0.99789874  0.49894937  0.68712730
   0.99838155  0.49919078  0.18724975
   0.50105063  0.00210126  0.68712730
   0.50080922  0.00161845  0.18724975
   0.50105063  0.49894937  0.68712730
   0.50080922  0.49919078  0.18724975
   0.49465044  0.98930087  0.81263080
   0.83302721  0.66605453  0.12498646
   0.01069913  0.50534956  0.81263080
   0.16561607  0.33123204  0.37537270
   0.16585748  0.33171485  0.87525025
   0.16561607  0.83438393  0.37537270
   0.16585748  0.83414252  0.87525025
   0.66876796  0.83438393  0.37537270
   0.66828515  0.83414252  0.87525025
   0.33348697  0.16674353  0.43765236
   0.33272113  0.16636061  0.93751354
   0.83325647  0.16674353  0.43765236
   0.83363939  0.16636061  0.93751354
   0.83325647  0.66651303  0.43765236
   0.83363939  0.66727887  0.93751354
   0.83341013  0.66682037  0.62484764
   0.49985562  0.50014438  0.99971766
   0.49998838  0.50001162  0.50003646
   0.49985562  0.99971125  0.99971766
   0.49998838  0.99997676  0.50003646
   0.00028875  0.50014438  0.99971766
   0.00002324  0.50001162  0.50003646
   0.16681108  0.33362205  0.06278234
   0.16667832  0.33335654  0.56246354
   0.16681108  0.83318892  0.06278234
   0.16667832  0.83332168  0.56246354
   0.66637795  0.83318892  0.06278234
   0.66664346  0.83332168  0.56246354
   0.33394547  0.16697279  0.12498646
   0.33317963  0.16658987  0.62484764
   0.83302721  0.16697279  0.12498646
   0.83341013  0.16658987  0.62484764
   0.00000000  0.00000000  0.49981528
   0.66666670  0.33333330  0.06094244
   0.66666670  0.33333330  0.56268472
   0.33333330  0.66666670  0.62540806
   0.00000000  0.00000000  0.18801230
   0.00000000  0.00000000  0.68919127
   0.66666670  0.33333330  0.24973859
   0.66666670  0.33333330  0.75236194
   0.00000000  0.00000000  0.31013806
   0.00000000  0.00000000  0.81276141
   0.66666670  0.33333330  0.37330873
   0.66666670  0.33333330  0.87448770
   0.33333330  0.66666670  0.43709194
   0.00000000  0.00000000  0.00155756
