  64  64   0   0
  0.1154775E+02  0.5074198E-09  0.5074199E-09  0.3314452E-08  0.5000000E-15
  1.000000000000000E-004
  CAR 
 Test of VASP submission                 
     18.31129183    -50.61704762  301      9.90275180      1.00000000
    -50.617  0.0000E+00  0.0000E+00  0.0000E+00  0.0000E+00
    -50.387  0.0000E+00  0.0000E+00  0.0000E+00  0.0000E+00
    -50.158  0.0000E+00  0.0000E+00  0.0000E+00  0.0000E+00
    -49.928  0.0000E+00  0.0000E+00  0.0000E+00  0.0000E+00
    -49.698  0.0000E+00  0.0000E+00  0.0000E+00  0.0000E+00
    -49.468  0.0000E+00  0.0000E+00  0.0000E+00  0.0000E+00
    -49.238 -0.1146E-33 -0.1146E-33 -0.2634E-34 -0.2634E-34
    -49.009 -0.1600E-25 -0.1601E-25 -0.3677E-26 -0.3677E-26
    -48.779 -0.1575E-18 -0.1575E-18 -0.3619E-19 -0.3619E-19
    -48.549 -0.1049E-12 -0.1049E-12 -0.2410E-13 -0.2410E-13
    -48.319 -0.4903E-08 -0.4903E-08 -0.1127E-08 -0.1127E-08
    -48.090 -0.1509E-04 -0.1509E-04 -0.3469E-05 -0.3469E-05
    -47.860 -0.2682E-02 -0.2682E-02 -0.6196E-03 -0.6197E-03
    -47.630 -0.2411E-02 -0.2411E-02 -0.1174E-02 -0.1174E-02
    -47.400  0.2556E+00  0.2556E+00  0.5754E-01  0.5754E-01
    -47.171  0.4746E+00  0.4746E+00  0.1666E+00  0.1666E+00
    -46.941  0.2526E+00  0.2526E+00  0.2246E+00  0.2246E+00
    -46.711 -0.8322E-02 -0.8322E-02  0.2227E+00  0.2227E+00
    -46.481 -0.2116E-02 -0.2116E-02  0.2222E+00  0.2222E+00
    -46.252 -0.1040E-04 -0.1040E-04  0.2222E+00  0.2222E+00
    -46.022 -0.3214E-08 -0.3213E-08  0.2222E+00  0.2222E+00
    -45.792 -0.6723E-13 -0.6723E-13  0.2222E+00  0.2222E+00
    -45.562  0.0000E+00  0.0000E+00  0.2222E+00  0.2222E+00
    -45.333  0.0000E+00  0.0000E+00  0.2222E+00  0.2222E+00
    -45.103  0.0000E+00  0.0000E+00  0.2222E+00  0.2222E+00
    -44.873  0.0000E+00  0.0000E+00  0.2222E+00  0.2222E+00
    -44.643  0.0000E+00  0.0000E+00  0.2222E+00  0.2222E+00
    -44.413  0.0000E+00  0.0000E+00  0.2222E+00  0.2222E+00
    -44.184  0.0000E+00  0.0000E+00  0.2222E+00  0.2222E+00
    -43.954  0.0000E+00  0.0000E+00  0.2222E+00  0.2222E+00
    -43.724  0.0000E+00  0.0000E+00  0.2222E+00  0.2222E+00
    -43.494  0.0000E+00  0.0000E+00  0.2222E+00  0.2222E+00
    -43.265  0.0000E+00  0.0000E+00  0.2222E+00  0.2222E+00
    -43.035  0.0000E+00  0.0000E+00  0.2222E+00  0.2222E+00
    -42.805  0.0000E+00  0.0000E+00  0.2222E+00  0.2222E+00
    -42.575  0.0000E+00  0.0000E+00  0.2222E+00  0.2222E+00
    -42.346  0.0000E+00  0.0000E+00  0.2222E+00  0.2222E+00
    -42.116  0.0000E+00  0.0000E+00  0.2222E+00  0.2222E+00
    -41.886  0.0000E+00  0.0000E+00  0.2222E+00  0.2222E+00
    -41.656  0.0000E+00  0.0000E+00  0.2222E+00  0.2222E+00
    -41.427  0.0000E+00  0.0000E+00  0.2222E+00  0.2222E+00
    -41.197  0.0000E+00  0.0000E+00  0.2222E+00  0.2222E+00
    -40.967  0.0000E+00  0.0000E+00  0.2222E+00  0.2222E+00
    -40.737  0.0000E+00  0.0000E+00  0.2222E+00  0.2222E+00
    -40.508  0.0000E+00  0.0000E+00  0.2222E+00  0.2222E+00
    -40.278  0.0000E+00  0.0000E+00  0.2222E+00  0.2222E+00
    -40.048  0.0000E+00  0.0000E+00  0.2222E+00  0.2222E+00
    -39.818  0.0000E+00  0.0000E+00  0.2222E+00  0.2222E+00
    -39.589  0.0000E+00  0.0000E+00  0.2222E+00  0.2222E+00
    -39.359  0.0000E+00  0.0000E+00  0.2222E+00  0.2222E+00
    -39.129  0.0000E+00  0.0000E+00  0.2222E+00  0.2222E+00
    -38.899  0.0000E+00  0.0000E+00  0.2222E+00  0.2222E+00
    -38.669  0.0000E+00  0.0000E+00  0.2222E+00  0.2222E+00
    -38.440  0.0000E+00  0.0000E+00  0.2222E+00  0.2222E+00
    -38.210  0.0000E+00  0.0000E+00  0.2222E+00  0.2222E+00
    -37.980  0.0000E+00  0.0000E+00  0.2222E+00  0.2222E+00
    -37.750  0.0000E+00  0.0000E+00  0.2222E+00  0.2222E+00
    -37.521  0.0000E+00  0.0000E+00  0.2222E+00  0.2222E+00
    -37.291  0.0000E+00  0.0000E+00  0.2222E+00  0.2222E+00
    -37.061  0.0000E+00  0.0000E+00  0.2222E+00  0.2222E+00
    -36.831  0.0000E+00  0.0000E+00  0.2222E+00  0.2222E+00
    -36.602  0.0000E+00  0.0000E+00  0.2222E+00  0.2222E+00
    -36.372  0.0000E+00  0.0000E+00  0.2222E+00  0.2222E+00
    -36.142  0.0000E+00  0.0000E+00  0.2222E+00  0.2222E+00
    -35.912  0.0000E+00  0.0000E+00  0.2222E+00  0.2222E+00
    -35.683  0.0000E+00  0.0000E+00  0.2222E+00  0.2222E+00
    -35.453  0.0000E+00  0.0000E+00  0.2222E+00  0.2222E+00
    -35.223  0.0000E+00  0.0000E+00  0.2222E+00  0.2222E+00
    -34.993  0.0000E+00  0.0000E+00  0.2222E+00  0.2222E+00
    -34.764  0.0000E+00  0.0000E+00  0.2222E+00  0.2222E+00
    -34.534  0.0000E+00  0.0000E+00  0.2222E+00  0.2222E+00
    -34.304  0.0000E+00  0.0000E+00  0.2222E+00  0.2222E+00
    -34.074  0.0000E+00  0.0000E+00  0.2222E+00  0.2222E+00
    -33.844  0.0000E+00  0.0000E+00  0.2222E+00  0.2222E+00
    -33.615  0.0000E+00  0.0000E+00  0.2222E+00  0.2222E+00
    -33.385  0.0000E+00  0.0000E+00  0.2222E+00  0.2222E+00
    -33.155  0.0000E+00  0.0000E+00  0.2222E+00  0.2222E+00
    -32.925  0.0000E+00  0.0000E+00  0.2222E+00  0.2222E+00
    -32.696  0.0000E+00  0.0000E+00  0.2222E+00  0.2222E+00
    -32.466  0.0000E+00  0.0000E+00  0.2222E+00  0.2222E+00
    -32.236  0.0000E+00  0.0000E+00  0.2222E+00  0.2222E+00
    -32.006  0.0000E+00  0.0000E+00  0.2222E+00  0.2222E+00
    -31.777  0.0000E+00  0.0000E+00  0.2222E+00  0.2222E+00
    -31.547  0.0000E+00  0.0000E+00  0.2222E+00  0.2222E+00
    -31.317  0.0000E+00  0.0000E+00  0.2222E+00  0.2222E+00
    -31.087  0.0000E+00  0.0000E+00  0.2222E+00  0.2222E+00
    -30.858  0.0000E+00  0.0000E+00  0.2222E+00  0.2222E+00
    -30.628  0.0000E+00  0.0000E+00  0.2222E+00  0.2222E+00
    -30.398  0.0000E+00  0.0000E+00  0.2222E+00  0.2222E+00
    -30.168  0.0000E+00  0.0000E+00  0.2222E+00  0.2222E+00
    -29.939  0.0000E+00  0.0000E+00  0.2222E+00  0.2222E+00
    -29.709  0.0000E+00  0.0000E+00  0.2222E+00  0.2222E+00
    -29.479  0.0000E+00  0.0000E+00  0.2222E+00  0.2222E+00
    -29.249  0.0000E+00  0.0000E+00  0.2222E+00  0.2222E+00
    -29.020  0.0000E+00  0.0000E+00  0.2222E+00  0.2222E+00
    -28.790  0.0000E+00  0.0000E+00  0.2222E+00  0.2222E+00
    -28.560  0.0000E+00  0.0000E+00  0.2222E+00  0.2222E+00
    -28.330  0.0000E+00  0.0000E+00  0.2222E+00  0.2222E+00
    -28.100  0.0000E+00  0.0000E+00  0.2222E+00  0.2222E+00
    -27.871  0.0000E+00  0.0000E+00  0.2222E+00  0.2222E+00
    -27.641  0.0000E+00  0.0000E+00  0.2222E+00  0.2222E+00
    -27.411  0.0000E+00  0.0000E+00  0.2222E+00  0.2222E+00
    -27.181  0.0000E+00  0.0000E+00  0.2222E+00  0.2222E+00
    -26.952  0.0000E+00  0.0000E+00  0.2222E+00  0.2222E+00
    -26.722  0.0000E+00  0.0000E+00  0.2222E+00  0.2222E+00
    -26.492  0.0000E+00  0.0000E+00  0.2222E+00  0.2222E+00
    -26.262  0.0000E+00  0.0000E+00  0.2222E+00  0.2222E+00
    -26.033  0.0000E+00  0.0000E+00  0.2222E+00  0.2222E+00
    -25.803  0.0000E+00  0.0000E+00  0.2222E+00  0.2222E+00
    -25.573 -0.3198E-35 -0.3198E-35  0.2222E+00  0.2222E+00
    -25.343 -0.7915E-27 -0.7916E-27  0.2222E+00  0.2222E+00
    -25.114 -0.1358E-19 -0.1358E-19  0.2222E+00  0.2222E+00
    -24.884 -0.1605E-13 -0.1605E-13  0.2222E+00  0.2222E+00
    -24.654 -0.1358E-08 -0.1359E-08  0.2222E+00  0.2222E+00
    -24.424 -0.7851E-05 -0.7851E-05  0.2222E+00  0.2222E+00
    -24.195 -0.2839E-02 -0.2840E-02  0.2216E+00  0.2216E+00
    -23.965 -0.3414E-01 -0.3414E-01  0.2137E+00  0.2137E+00
    -23.735  0.4812E+00  0.4812E+00  0.3243E+00  0.3243E+00
    -23.505  0.1342E+01  0.1342E+01  0.6326E+00  0.6326E+00
    -23.275  0.1071E+01  0.1071E+01  0.8787E+00  0.8788E+00
    -23.046  0.6069E-01  0.6068E-01  0.8927E+00  0.8927E+00
    -22.816 -0.1636E-01 -0.1636E-01  0.8889E+00  0.8889E+00
    -22.586 -0.1916E-03 -0.1916E-03  0.8889E+00  0.8889E+00
    -22.356 -0.1331E-06 -0.1331E-06  0.8889E+00  0.8889E+00
    -22.127 -0.6331E-11 -0.6331E-11  0.8889E+00  0.8889E+00
    -21.897 -0.1039E-16 -0.1039E-16  0.8889E+00  0.8889E+00
    -21.667  0.0000E+00  0.0000E+00  0.8889E+00  0.8889E+00
    -21.437  0.0000E+00  0.0000E+00  0.8889E+00  0.8889E+00
    -21.208  0.0000E+00  0.0000E+00  0.8889E+00  0.8889E+00
    -20.978  0.0000E+00  0.0000E+00  0.8889E+00  0.8889E+00
    -20.748  0.0000E+00  0.0000E+00  0.8889E+00  0.8889E+00
    -20.518  0.0000E+00  0.0000E+00  0.8889E+00  0.8889E+00
    -20.289  0.0000E+00  0.0000E+00  0.8889E+00  0.8889E+00
    -20.059  0.0000E+00  0.0000E+00  0.8889E+00  0.8889E+00
    -19.829  0.0000E+00  0.0000E+00  0.8889E+00  0.8889E+00
    -19.599  0.0000E+00  0.0000E+00  0.8889E+00  0.8889E+00
    -19.370  0.0000E+00  0.0000E+00  0.8889E+00  0.8889E+00
    -19.140  0.0000E+00  0.0000E+00  0.8889E+00  0.8889E+00
    -18.910  0.0000E+00  0.0000E+00  0.8889E+00  0.8889E+00
    -18.680  0.0000E+00  0.0000E+00  0.8889E+00  0.8889E+00
    -18.450  0.0000E+00  0.0000E+00  0.8889E+00  0.8889E+00
    -18.221  0.0000E+00  0.0000E+00  0.8889E+00  0.8889E+00
    -17.991  0.0000E+00  0.0000E+00  0.8889E+00  0.8889E+00
    -17.761  0.0000E+00  0.0000E+00  0.8889E+00  0.8889E+00
    -17.531  0.0000E+00  0.0000E+00  0.8889E+00  0.8889E+00
    -17.302  0.0000E+00  0.0000E+00  0.8889E+00  0.8889E+00
    -17.072  0.0000E+00  0.0000E+00  0.8889E+00  0.8889E+00
    -16.842  0.0000E+00  0.0000E+00  0.8889E+00  0.8889E+00
    -16.612  0.0000E+00  0.0000E+00  0.8889E+00  0.8889E+00
    -16.383  0.0000E+00  0.0000E+00  0.8889E+00  0.8889E+00
    -16.153  0.0000E+00  0.0000E+00  0.8889E+00  0.8889E+00
    -15.923  0.0000E+00  0.0000E+00  0.8889E+00  0.8889E+00
    -15.693  0.0000E+00  0.0000E+00  0.8889E+00  0.8889E+00
    -15.464  0.0000E+00  0.0000E+00  0.8889E+00  0.8889E+00
    -15.234  0.0000E+00  0.0000E+00  0.8889E+00  0.8889E+00
    -15.004  0.0000E+00  0.0000E+00  0.8889E+00  0.8889E+00
    -14.774  0.0000E+00  0.0000E+00  0.8889E+00  0.8889E+00
    -14.545  0.0000E+00  0.0000E+00  0.8889E+00  0.8889E+00
    -14.315  0.0000E+00  0.0000E+00  0.8889E+00  0.8889E+00
    -14.085  0.0000E+00  0.0000E+00  0.8889E+00  0.8889E+00
    -13.855  0.0000E+00  0.0000E+00  0.8889E+00  0.8889E+00
    -13.626  0.0000E+00  0.0000E+00  0.8889E+00  0.8889E+00
    -13.396  0.0000E+00  0.0000E+00  0.8889E+00  0.8889E+00
    -13.166  0.0000E+00  0.0000E+00  0.8889E+00  0.8889E+00
    -12.936  0.0000E+00  0.0000E+00  0.8889E+00  0.8889E+00
    -12.706  0.0000E+00  0.0000E+00  0.8889E+00  0.8889E+00
    -12.477  0.0000E+00  0.0000E+00  0.8889E+00  0.8889E+00
    -12.247  0.0000E+00  0.0000E+00  0.8889E+00  0.8889E+00
    -12.017  0.0000E+00  0.0000E+00  0.8889E+00  0.8889E+00
    -11.787  0.0000E+00  0.0000E+00  0.8889E+00  0.8889E+00
    -11.558  0.0000E+00  0.0000E+00  0.8889E+00  0.8889E+00
    -11.328  0.0000E+00  0.0000E+00  0.8889E+00  0.8889E+00
    -11.098  0.0000E+00  0.0000E+00  0.8889E+00  0.8889E+00
    -10.868  0.0000E+00  0.0000E+00  0.8889E+00  0.8889E+00
    -10.639  0.0000E+00  0.0000E+00  0.8889E+00  0.8889E+00
    -10.409  0.0000E+00  0.0000E+00  0.8889E+00  0.8889E+00
    -10.179  0.0000E+00  0.0000E+00  0.8889E+00  0.8889E+00
     -9.949  0.0000E+00  0.0000E+00  0.8889E+00  0.8889E+00
     -9.720  0.0000E+00  0.0000E+00  0.8889E+00  0.8889E+00
     -9.490  0.0000E+00  0.0000E+00  0.8889E+00  0.8889E+00
     -9.260  0.0000E+00  0.0000E+00  0.8889E+00  0.8889E+00
     -9.030  0.0000E+00  0.0000E+00  0.8889E+00  0.8889E+00
     -8.801  0.0000E+00  0.0000E+00  0.8889E+00  0.8889E+00
     -8.571  0.0000E+00  0.0000E+00  0.8889E+00  0.8889E+00
     -8.341  0.0000E+00  0.0000E+00  0.8889E+00  0.8889E+00
     -8.111  0.0000E+00  0.0000E+00  0.8889E+00  0.8889E+00
     -7.881  0.0000E+00  0.0000E+00  0.8889E+00  0.8889E+00
     -7.652  0.0000E+00  0.0000E+00  0.8889E+00  0.8889E+00
     -7.422  0.0000E+00  0.0000E+00  0.8889E+00  0.8889E+00
     -7.192  0.0000E+00  0.0000E+00  0.8889E+00  0.8889E+00
     -6.962  0.0000E+00  0.0000E+00  0.8889E+00  0.8889E+00
     -6.733  0.0000E+00  0.0000E+00  0.8889E+00  0.8889E+00
     -6.503  0.0000E+00  0.0000E+00  0.8889E+00  0.8889E+00
     -6.273  0.0000E+00  0.0000E+00  0.8889E+00  0.8889E+00
     -6.043  0.0000E+00  0.0000E+00  0.8889E+00  0.8889E+00
     -5.814  0.0000E+00  0.0000E+00  0.8889E+00  0.8889E+00
     -5.584  0.0000E+00  0.0000E+00  0.8889E+00  0.8889E+00
     -5.354  0.0000E+00  0.0000E+00  0.8889E+00  0.8889E+00
     -5.124  0.0000E+00  0.0000E+00  0.8889E+00  0.8889E+00
     -4.895  0.0000E+00  0.0000E+00  0.8889E+00  0.8889E+00
     -4.665  0.0000E+00  0.0000E+00  0.8889E+00  0.8889E+00
     -4.435  0.0000E+00  0.0000E+00  0.8889E+00  0.8889E+00
     -4.205  0.0000E+00  0.0000E+00  0.8889E+00  0.8889E+00
     -3.976  0.0000E+00  0.0000E+00  0.8889E+00  0.8889E+00
     -3.746  0.0000E+00  0.0000E+00  0.8889E+00  0.8889E+00
     -3.516  0.0000E+00  0.0000E+00  0.8889E+00  0.8889E+00
     -3.286  0.0000E+00  0.0000E+00  0.8889E+00  0.8889E+00
     -3.056  0.0000E+00  0.0000E+00  0.8889E+00  0.8889E+00
     -2.827  0.0000E+00  0.0000E+00  0.8889E+00  0.8889E+00
     -2.597  0.0000E+00  0.0000E+00  0.8889E+00  0.8889E+00
     -2.367  0.0000E+00  0.0000E+00  0.8889E+00  0.8889E+00
     -2.137  0.0000E+00  0.0000E+00  0.8889E+00  0.8889E+00
     -1.908  0.0000E+00  0.0000E+00  0.8889E+00  0.8889E+00
     -1.678  0.0000E+00  0.0000E+00  0.8889E+00  0.8889E+00
     -1.448  0.0000E+00  0.0000E+00  0.8889E+00  0.8889E+00
     -1.218  0.0000E+00  0.0000E+00  0.8889E+00  0.8889E+00
     -0.989  0.0000E+00  0.0000E+00  0.8889E+00  0.8889E+00
     -0.759 -0.2672E-35 -0.2674E-35  0.8889E+00  0.8889E+00
     -0.529 -0.3070E-27 -0.3071E-27  0.8889E+00  0.8889E+00
     -0.299 -0.2521E-20 -0.2522E-20  0.8889E+00  0.8889E+00
     -0.070 -0.1427E-14 -0.1428E-14  0.8889E+00  0.8889E+00
      0.160 -0.5853E-10 -0.5854E-10  0.8889E+00  0.8889E+00
      0.390 -0.1667E-06 -0.1667E-06  0.8889E+00  0.8889E+00
      0.620 -0.3057E-04 -0.3057E-04  0.8889E+00  0.8889E+00
      0.849 -0.1367E-03 -0.1367E-03  0.8889E+00  0.8889E+00
      1.079  0.3199E-02  0.3199E-02  0.8896E+00  0.8896E+00
      1.309  0.1119E-01  0.1119E-01  0.8922E+00  0.8922E+00
      1.539  0.2023E-01  0.2023E-01  0.8968E+00  0.8968E+00
      1.768  0.2654E-01  0.2654E-01  0.9029E+00  0.9029E+00
      1.998  0.3211E-01  0.3211E-01  0.9103E+00  0.9103E+00
      2.228  0.3842E-01  0.3842E-01  0.9191E+00  0.9191E+00
      2.458  0.4711E-01  0.4711E-01  0.9299E+00  0.9299E+00
      2.688  0.5552E-01  0.5552E-01  0.9427E+00  0.9427E+00
      2.917  0.4831E-01  0.4831E-01  0.9538E+00  0.9538E+00
      3.147  0.4200E-01  0.4200E-01  0.9634E+00  0.9634E+00
      3.377  0.4977E-01  0.4977E-01  0.9749E+00  0.9749E+00
      3.607  0.6613E-01  0.6613E-01  0.9901E+00  0.9901E+00
      3.836  0.8166E-01  0.8166E-01  0.1009E+01  0.1009E+01
      4.066  0.8641E-01  0.8641E-01  0.1029E+01  0.1029E+01
      4.296  0.9285E-01  0.9285E-01  0.1050E+01  0.1050E+01
      4.526  0.1053E+00  0.1053E+00  0.1074E+01  0.1074E+01
      4.755  0.1219E+00  0.1219E+00  0.1102E+01  0.1102E+01
      4.985  0.1467E+00  0.1467E+00  0.1136E+01  0.1136E+01
      5.215  0.2159E+00  0.2159E+00  0.1186E+01  0.1186E+01
      5.445  0.3254E+00  0.3254E+00  0.1260E+01  0.1260E+01
      5.674  0.3800E+00  0.3800E+00  0.1348E+01  0.1348E+01
      5.904  0.4429E+00  0.4429E+00  0.1449E+01  0.1449E+01
      6.134  0.5484E+00  0.5484E+00  0.1575E+01  0.1575E+01
      6.364  0.7353E+00  0.7353E+00  0.1744E+01  0.1744E+01
      6.593  0.8583E+00  0.8583E+00  0.1941E+01  0.1941E+01
      6.823  0.9749E+00  0.9749E+00  0.2165E+01  0.2165E+01
      7.053  0.8854E+00  0.8854E+00  0.2369E+01  0.2369E+01
      7.283  0.9424E+00  0.9424E+00  0.2585E+01  0.2585E+01
      7.513  0.1028E+01  0.1028E+01  0.2822E+01  0.2822E+01
      7.742  0.1091E+01  0.1091E+01  0.3072E+01  0.3072E+01
      7.972  0.1332E+01  0.1332E+01  0.3378E+01  0.3378E+01
      8.202  0.1331E+01  0.1331E+01  0.3684E+01  0.3684E+01
      8.432  0.1370E+01  0.1370E+01  0.3999E+01  0.3999E+01
      8.661  0.1279E+01  0.1279E+01  0.4293E+01  0.4293E+01
      8.891  0.1250E+01  0.1250E+01  0.4580E+01  0.4580E+01
      9.121  0.9661E+00  0.9661E+00  0.4802E+01  0.4802E+01
      9.351  0.8169E+00  0.8169E+00  0.4990E+01  0.4990E+01
      9.580  0.5427E+00  0.5427E+00  0.5114E+01  0.5114E+01
      9.810  0.2822E+00  0.2822E+00  0.5179E+01  0.5179E+01
     10.040  0.8533E-01  0.8533E-01  0.5199E+01  0.5199E+01
     10.270  0.1283E+00  0.1283E+00  0.5228E+01  0.5228E+01
     10.499  0.3115E+00  0.3115E+00  0.5300E+01  0.5300E+01
     10.729  0.7940E+00  0.7940E+00  0.5482E+01  0.5482E+01
     10.959  0.9541E+00  0.9541E+00  0.5701E+01  0.5701E+01
     11.189  0.6960E+00  0.6960E+00  0.5861E+01  0.5861E+01
     11.418  0.4373E+00  0.4373E+00  0.5962E+01  0.5962E+01
     11.648  0.4005E+00  0.4005E+00  0.6054E+01  0.6054E+01
     11.878  0.3812E+00  0.3812E+00  0.6141E+01  0.6141E+01
     12.108  0.3186E+00  0.3186E+00  0.6214E+01  0.6214E+01
     12.338  0.2206E+00  0.2206E+00  0.6265E+01  0.6265E+01
     12.567  0.1809E+00  0.1809E+00  0.6307E+01  0.6307E+01
     12.797  0.1710E+00  0.1710E+00  0.6346E+01  0.6346E+01
     13.027  0.1720E+00  0.1719E+00  0.6386E+01  0.6386E+01
     13.257  0.1559E+00  0.1556E+00  0.6421E+01  0.6421E+01
     13.486  0.1739E+00  0.1740E+00  0.6461E+01  0.6461E+01
     13.716  0.1800E+00  0.1805E+00  0.6503E+01  0.6503E+01
     13.946  0.1479E+00  0.1482E+00  0.6537E+01  0.6537E+01
     14.176  0.1220E+00  0.1203E+00  0.6565E+01  0.6564E+01
     14.405  0.8713E-01  0.8730E-01  0.6585E+01  0.6584E+01
     14.635  0.5046E-01  0.5197E-01  0.6596E+01  0.6596E+01
     14.865  0.2059E-01  0.2056E-01  0.6601E+01  0.6601E+01
     15.095  0.8574E-02  0.7996E-02  0.6603E+01  0.6603E+01
     15.324  0.9639E-03  0.1014E-02  0.6603E+01  0.6603E+01
     15.554 -0.1301E-03 -0.9740E-04  0.6603E+01  0.6603E+01
     15.784 -0.7830E-05 -0.1064E-04  0.6603E+01  0.6603E+01
     16.014 -0.2499E-07 -0.5917E-07  0.6603E+01  0.6603E+01
     16.243 -0.5154E-11 -0.2076E-10  0.6603E+01  0.6603E+01
     16.473 -0.7179E-16 -0.4827E-15  0.6603E+01  0.6603E+01
     16.703  0.0000E+00  0.0000E+00  0.6603E+01  0.6603E+01
     16.933  0.0000E+00  0.0000E+00  0.6603E+01  0.6603E+01
     17.162  0.0000E+00  0.0000E+00  0.6603E+01  0.6603E+01
     17.392  0.0000E+00  0.0000E+00  0.6603E+01  0.6603E+01
     17.622  0.0000E+00  0.0000E+00  0.6603E+01  0.6603E+01
     17.852  0.0000E+00  0.0000E+00  0.6603E+01  0.6603E+01
     18.082  0.0000E+00  0.0000E+00  0.6603E+01  0.6603E+01
     18.311  0.0000E+00  0.0000E+00  0.6603E+01  0.6603E+01
