   64   64   63    2
  0.1154775E+02  0.5074198E-09  0.5074199E-09  0.3314452E-08  0.5000000E-15
  1.000000000000000E-004
  CAR 
 Test of VASP submission                 
    654    121    416
 
  0.0000000E+00  0.0000000E+00  0.0000000E+00  0.8333333E-03
    1      -47.483903    -47.483905   1.000000   1.000000
    2      -47.479937    -47.479938   1.000000   1.000000
    3      -47.455116    -47.455117   1.000000   1.000000
    4      -47.455068    -47.455070   1.000000   1.000000
    5      -47.343698    -47.343700   1.000000   1.000000
    6      -47.343568    -47.343569   1.000000   1.000000
    7      -47.288434    -47.288435   1.000000   1.000000
    8      -47.288405    -47.288406   1.000000   1.000000
    9      -47.195452    -47.195454   1.000000   1.000000
   10      -47.195161    -47.195163   1.000000   1.000000
   11      -47.163737    -47.163738   1.000000   1.000000
   12      -47.163300    -47.163301   1.000000   1.000000
   13      -47.097319    -47.097322   1.000000   1.000000
   14      -47.092179    -47.092182   1.000000   1.000000
   15      -23.764432    -23.764434   1.000000   1.000000
   16      -23.764430    -23.764431   1.000000   1.000000
   17      -23.760130    -23.760131   1.000000   1.000000
   18      -23.748815    -23.748816   1.000000   1.000000
   19      -23.748812    -23.748814   1.000000   1.000000
   20      -23.745667    -23.745669   1.000000   1.000000
   21      -23.726968    -23.726970   1.000000   1.000000
   22      -23.726966    -23.726967   1.000000   1.000000
   23      -23.724126    -23.724127   1.000000   1.000000
   24      -23.724123    -23.724125   1.000000   1.000000
   25      -23.718972    -23.718974   1.000000   1.000000
   26      -23.714801    -23.714803   1.000000   1.000000
   27      -23.623908    -23.623909   1.000000   1.000000
   28      -23.623905    -23.623907   1.000000   1.000000
   29      -23.623854    -23.623856   1.000000   1.000000
   30      -23.623852    -23.623854   1.000000   1.000000
   31      -23.599562    -23.599564   1.000000   1.000000
   32      -23.599507    -23.599509   1.000000   1.000000
   33      -23.569792    -23.569793   1.000000   1.000000
   34      -23.569788    -23.569789   1.000000   1.000000
   35      -23.569767    -23.569769   1.000000   1.000000
   36      -23.569764    -23.569765   1.000000   1.000000
   37      -23.535164    -23.535166   1.000000   1.000000
   38      -23.535135    -23.535137   1.000000   1.000000
   39      -23.484669    -23.484670   1.000000   1.000000
   40      -23.484666    -23.484668   1.000000   1.000000
   41      -23.484381    -23.484383   1.000000   1.000000
   42      -23.484379    -23.484380   1.000000   1.000000
   43      -23.440890    -23.440891   1.000000   1.000000
   44      -23.440887    -23.440888   1.000000   1.000000
   45      -23.440484    -23.440486   1.000000   1.000000
   46      -23.440481    -23.440483   1.000000   1.000000
   47      -23.431354    -23.431357   1.000000   1.000000
   48      -23.431043    -23.431046   1.000000   1.000000
   49      -23.409138    -23.409141   1.000000   1.000000
   50      -23.408764    -23.408767   1.000000   1.000000
   51      -23.379632    -23.379635   1.000000   1.000000
   52      -23.379630    -23.379633   1.000000   1.000000
   53      -23.367414    -23.367416   1.000000   1.000000
   54      -23.356506    -23.356509   1.000000   1.000000
   55      -23.356504    -23.356507   1.000000   1.000000
   56      -23.347286    -23.347289   1.000000   1.000000
   57        0.971338      0.971332   1.000000   1.000000
   58        1.208386      1.208380   1.000000   1.000000
   59        1.329913      1.329908   1.000000   1.000000
   60        1.649013      1.649008   1.000000   1.000000
   61        1.913431      1.913426   1.000000   1.000000
   62        2.427170      2.427165   1.000000   1.000000
   63        2.633535      2.633530   1.000000   1.000000
   64        3.372869      3.372864   1.000000   1.000000
   65        3.391986      3.391981   1.000000   1.000000
   66        4.231004      4.231000   1.000000   1.000000
   67        4.293115      4.293111   1.000000   1.000000
   68        4.891157      4.891154   1.000000   1.000000
   69        4.895946      4.895943   1.000000   1.000000
   70        5.089879      5.089877   1.000000   1.000000
   71        5.108928      5.108926   1.000000   1.000000
   72        5.108928      5.108926   1.000000   1.000000
   73        5.135412      5.135410   1.000000   1.000000
   74        5.135412      5.135410   1.000000   1.000000
   75        5.228429      5.228426   1.000000   1.000000
   76        5.285341      5.285339   1.000000   1.000000
   77        5.285342      5.285339   1.000000   1.000000
   78        5.297456      5.297454   1.000000   1.000000
   79        5.297457      5.297455   1.000000   1.000000
   80        5.425952      5.425949   1.000000   1.000000
   81        5.425952      5.425950   1.000000   1.000000
   82        5.442920      5.442917   1.000000   1.000000
   83        5.473224      5.473221   1.000000   1.000000
   84        5.473224      5.473221   1.000000   1.000000
   85        5.541536      5.541533   1.000000   1.000000
   86        5.541537      5.541534   1.000000   1.000000
   87        5.627105      5.627102   1.000000   1.000000
   88        5.637519      5.637516   1.000000   1.000000
   89        5.637520      5.637517   1.000000   1.000000
   90        5.689547      5.689545   1.000000   1.000000
   91        5.709154      5.709152   1.000000   1.000000
   92        5.709155      5.709152   1.000000   1.000000
   93        5.722595      5.722593   1.000000   1.000000
   94        5.724245      5.724242   1.000000   1.000000
   95        5.724245      5.724242   1.000000   1.000000
   96        5.749440      5.749437   1.000000   1.000000
   97        5.749441      5.749438   1.000000   1.000000
   98        5.765491      5.765489   1.000000   1.000000
   99        5.778011      5.778008   1.000000   1.000000
  100        5.778012      5.778009   1.000000   1.000000
  101        5.823321      5.823319   1.000000   1.000000
  102        5.856701      5.856698   1.000000   1.000000
  103        5.856701      5.856698   1.000000   1.000000
  104        5.860432      5.860430   1.000000   1.000000
  105        5.862237      5.862235   1.000000   1.000000
  106        5.862238      5.862235   1.000000   1.000000
  107        5.941581      5.941579   1.000000   1.000000
  108        5.970415      5.970414   1.000000   1.000000
  109        5.976164      5.976162   1.000000   1.000000
  110        5.976164      5.976163   1.000000   1.000000
  111        5.984222      5.984221   1.000000   1.000000
  112        6.034249      6.034247   1.000000   1.000000
  113        6.058216      6.058215   1.000000   1.000000
  114        6.089220      6.089218   1.000000   1.000000
  115        6.141323      6.141321   1.000000   1.000000
  116        6.145713      6.145712   1.000000   1.000000
  117        6.145713      6.145712   1.000000   1.000000
  118        6.178412      6.178410   1.000000   1.000000
  119        6.186522      6.186520   1.000000   1.000000
  120        6.187400      6.187398   1.000000   1.000000
  121        6.187400      6.187398   1.000000   1.000000
  122        6.244839      6.244838   1.000000   1.000000
  123        6.323638      6.323636   1.000000   1.000000
  124        6.323639      6.323637   1.000000   1.000000
  125        6.346430      6.346429   1.000000   1.000000
  126        6.381103      6.381101   1.000000   1.000000
  127        6.417269      6.417268   1.000000   1.000000
  128        6.417269      6.417268   1.000000   1.000000
  129        6.459662      6.459661   1.000000   1.000000
  130        6.519181      6.519179   1.000000   1.000000
  131        6.597404      6.597403   1.000000   1.000000
  132        6.602079      6.602078   1.000000   1.000000
  133        6.602080      6.602078   1.000000   1.000000
  134        6.608008      6.608006   1.000000   1.000000
  135        6.618772      6.618770   1.000000   1.000000
  136        6.618772      6.618771   1.000000   1.000000
  137        6.690345      6.690343   1.000000   1.000000
  138        6.690345      6.690344   1.000000   1.000000
  139        6.690722      6.690720   1.000000   1.000000
  140        6.695726      6.695725   1.000000   1.000000
  141        6.695727      6.695725   1.000000   1.000000
  142        6.749138      6.749136   1.000000   1.000000
  143        6.749138      6.749137   1.000000   1.000000
  144        6.793944      6.793942   1.000000   1.000000
  145        6.897434      6.897433   1.000000   1.000000
  146        6.907114      6.907112   1.000000   1.000000
  147        6.907114      6.907113   1.000000   1.000000
  148        7.067258      7.067256   1.000000   1.000000
  149        7.125111      7.125109   1.000000   1.000000
  150        7.125112      7.125111   1.000000   1.000000
  151        7.169344      7.169342   1.000000   1.000000
  152        7.201627      7.201626   1.000000   1.000000
  153        7.201628      7.201627   1.000000   1.000000
  154        7.313188      7.313187   1.000000   1.000000
  155        7.313189      7.313187   1.000000   1.000000
  156        7.390711      7.390710   1.000000   1.000000
  157        7.390711      7.390711   1.000000   1.000000
  158        7.403416      7.403415   1.000000   1.000000
  159        7.404257      7.404256   1.000000   1.000000
  160        7.462294      7.462294   1.000000   1.000000
  161        7.462295      7.462295   1.000000   1.000000
  162        7.504454      7.504453   1.000000   1.000000
  163        7.504501      7.504501   1.000000   1.000000
  164        7.508753      7.508752   1.000000   1.000000
  165        7.635473      7.635473   1.000000   1.000000
  166        7.635732      7.635731   1.000000   1.000000
  167        7.643751      7.643750   1.000000   1.000000
  168        7.681803      7.681802   1.000000   1.000000
  169        7.681804      7.681803   1.000000   1.000000
  170        7.704618      7.704617   1.000000   1.000000
  171        7.724411      7.724410   1.000000   1.000000
  172        7.761334      7.761334   1.000000   1.000000
  173        7.768140      7.768139   1.000000   1.000000
  174        7.768140      7.768139   1.000000   1.000000
  175        7.789927      7.789927   1.000000   1.000000
  176        7.789929      7.789928   1.000000   1.000000
  177        7.796790      7.796790   1.000000   1.000000
  178        7.799125      7.799124   1.000000   1.000000
  179        7.799126      7.799125   1.000000   1.000000
  180        7.813432      7.813431   1.000000   1.000000
  181        7.825894      7.825894   1.000000   1.000000
  182        7.825895      7.825895   1.000000   1.000000
  183        7.859494      7.859493   1.000000   1.000000
  184        7.859495      7.859494   1.000000   1.000000
  185        7.866976      7.866975   1.000000   1.000000
  186        7.875843      7.875843   1.000000   1.000000
  187        7.875844      7.875844   1.000000   1.000000
  188        7.895540      7.895539   1.000000   1.000000
  189        7.898032      7.898032   1.000000   1.000000
  190        7.898033      7.898033   1.000000   1.000000
  191        7.898061      7.898061   1.000000   1.000000
  192        7.917209      7.917209   1.000000   1.000000
  193        7.917210      7.917210   1.000000   1.000000
  194        7.953315      7.953314   1.000000   1.000000
  195        7.953316      7.953316   1.000000   1.000000
  196        7.957061      7.957061   1.000000   1.000000
  197        7.959683      7.959683   1.000000   1.000000
  198        7.959684      7.959684   1.000000   1.000000
  199        7.991231      7.991230   1.000000   1.000000
  200        7.994416      7.994415   1.000000   1.000000
  201        7.994417      7.994417   1.000000   1.000000
  202        8.006267      8.006266   1.000000   1.000000
  203        8.006268      8.006267   1.000000   1.000000
  204        8.028213      8.028213   1.000000   1.000000
  205        8.028215      8.028214   1.000000   1.000000
  206        8.029606      8.029605   1.000000   1.000000
  207        8.029607      8.029606   1.000000   1.000000
  208        8.061922      8.061921   1.000000   1.000000
  209        8.076004      8.076003   1.000000   1.000000
  210        8.076005      8.076004   1.000000   1.000000
  211        8.079926      8.079926   1.000000   1.000000
  212        8.079927      8.079926   1.000000   1.000000
  213        8.094178      8.094177   1.000000   1.000000
  214        8.094178      8.094178   1.000000   1.000000
  215        8.130474      8.130473   1.000000   1.000000
  216        8.151284      8.151284   1.000000   1.000000
  217        8.181304      8.181304   1.000000   1.000000
  218        8.190864      8.190864   1.000000   1.000000
  219        8.190865      8.190865   1.000000   1.000000
  220        8.224638      8.224637   1.000000   1.000000
  221        8.224638      8.224638   1.000000   1.000000
  222        8.230578      8.230577   1.000000   1.000000
  223        8.230578      8.230578   1.000000   1.000000
  224        8.238799      8.238798   1.000000   1.000000
  225        8.246436      8.246435   1.000000   1.000000
  226        8.246437      8.246436   1.000000   1.000000
  227        8.249221      8.249219   1.000000   1.000000
  228        8.285255      8.285254   1.000000   1.000000
  229        8.285255      8.285255   1.000000   1.000000
  230        8.317403      8.317402   1.000000   1.000000
  231        8.346057      8.346057   1.000000   1.000000
  232        8.346059      8.346058   1.000000   1.000000
  233        8.351115      8.351114   1.000000   1.000000
  234        8.351116      8.351115   1.000000   1.000000
  235        8.386650      8.386650   1.000000   1.000000
  236        8.386651      8.386650   1.000000   1.000000
  237        8.390089      8.390089   1.000000   1.000000
  238        8.390090      8.390089   1.000000   1.000000
  239        8.479381      8.479381   1.000000   1.000000
  240        8.480862      8.480862   1.000000   1.000000
  241        8.480863      8.480863   1.000000   1.000000
  242        8.490999      8.490999   1.000000   1.000000
  243        8.519036      8.519036   1.000000   1.000000
  244        8.519036      8.519036   1.000000   1.000000
  245        8.605491      8.605490   1.000000   1.000000
  246        8.605491      8.605491   1.000000   1.000000
  247        8.612515      8.612514   1.000000   1.000000
  248        8.612515      8.612515   1.000000   1.000000
  249        8.700989      8.700989   1.000000   1.000000
  250        8.700990      8.700990   1.000000   1.000000
  251        8.704825      8.704825   1.000000   1.000000
  252        8.704826      8.704826   1.000000   1.000000
  253        8.745235      8.745235   1.000000   1.000000
  254        8.745236      8.745235   1.000000   1.000000
  255        8.750504      8.750504   1.000000   1.000000
  256        8.750504      8.750504   1.000000   1.000000
  257        8.762466      8.762466   1.000000   1.000000
  258        8.762467      8.762467   1.000000   1.000000
  259        8.797971      8.797967   1.000000   1.000000
  260        8.818310      8.818310   1.000000   1.000000
  261        8.818311      8.818310   1.000000   1.000000
  262        8.821263      8.821263   1.000000   1.000000
  263        8.828267      8.828267   1.000000   1.000000
  264        8.845723      8.845723   1.000000   1.000000
  265        8.845723      8.845723   1.000000   1.000000
  266        8.882449      8.882449   1.000000   1.000000
  267        8.882450      8.882450   1.000000   1.000000
  268        8.887329      8.887326   1.000000   1.000000
  269        8.889339      8.889336   1.000000   1.000000
  270        8.915379      8.915378   1.000000   1.000000
  271        8.915379      8.915379   1.000000   1.000000
  272        8.927485      8.927484   1.000000   1.000000
  273        8.927485      8.927485   1.000000   1.000000
  274        8.952249      8.952246   1.000000   1.000000
  275        9.039788      9.039787   1.000000   1.000000
  276        9.039789      9.039788   1.000000   1.000000
  277        9.043897      9.043896   1.000000   1.000000
  278        9.043897      9.043897   1.000000   1.000000
  279        9.059176      9.059176   1.000000   1.000000
  280        9.059177      9.059176   1.000000   1.000000
  281        9.085553      9.085554   1.000000   1.000000
  282        9.130136      9.130131   1.000000   1.000000
  283        9.132564      9.132565   1.000000   1.000000
  284        9.144256      9.144252   1.000001   1.000001
  285        9.228352      9.228352   1.000010   1.000010
  286        9.228352      9.228352   1.000010   1.000010
  287        9.243223      9.243223   1.000016   1.000016
  288        9.258557      9.258557   1.000026   1.000026
  289        9.281131      9.281127   1.000050   1.000050
  290        9.289354      9.289354   1.000064   1.000064
  291        9.289355      9.289355   1.000064   1.000064
  292        9.298166      9.298167   1.000082   1.000082
  293        9.325597      9.325597   1.000174   1.000174
  294        9.325598      9.325597   1.000174   1.000174
  295        9.333292      9.333293   1.000214   1.000214
  296        9.365513      9.365514   1.000484   1.000484
  297        9.382861      9.382861   1.000734   1.000734
  298        9.385610      9.385605   1.000783   1.000783
  299        9.410271      9.410271   1.001367   1.001367
  300        9.415941      9.415941   1.001547   1.001547
  301        9.415942      9.415942   1.001547   1.001547
  302        9.425997      9.425997   1.001916   1.001916
  303        9.443456      9.443451   1.002738   1.002738
  304        9.473776      9.473777   1.004870   1.004870
  305        9.484719      9.484719   1.005910   1.005910
  306        9.492026      9.492027   1.006697   1.006697
  307        9.492684      9.492684   1.006772   1.006772
  308        9.537664      9.537664   1.013473   1.013473
  309        9.537664      9.537665   1.013473   1.013473
  310        9.565534      9.565534   1.019158   1.019158
  311        9.645892      9.645889   1.034954   1.034954
  312        9.646839      9.646834   1.035028   1.035028
  313        9.668720      9.668721   1.034964   1.034964
  314        9.673705      9.673705   1.034375   1.034375
  315        9.690102      9.690102   1.030507   1.030507
  316        9.726048      9.726048   1.008438   1.008438
  317        9.726049      9.726049   1.008437   1.008437
  318        9.759191      9.759192   0.965936   0.965934
  319        9.807687      9.807685   0.856246   0.856251
  320        9.807688      9.807686   0.856243   0.856248
  321        9.841717      9.841713   0.745409   0.745425
  322        9.873875      9.873876   0.620787   0.620783
  323        9.912933      9.912934   0.456980   0.456976
  324        9.917779      9.917776   0.436612   0.436627
  325       10.080194     10.080190  -0.009120  -0.009115
  326       10.121308     10.121305  -0.032270  -0.032269
  327       10.121309     10.121306  -0.032270  -0.032269
  328       10.165641     10.165639  -0.034364  -0.034364
  329       10.165643     10.165641  -0.034363  -0.034364
  330       10.327278     10.327276  -0.005273  -0.005273
  331       10.327279     10.327276  -0.005273  -0.005273
  332       10.376511     10.376507  -0.002039  -0.002040
  333       10.456758     10.456756  -0.000319  -0.000319
  334       10.456759     10.456757  -0.000319  -0.000319
  335       10.489911     10.489907  -0.000133  -0.000133
  336       10.590906     10.590903  -0.000006  -0.000006
  337       10.590909     10.590908  -0.000006  -0.000006
  338       10.662585     10.662582  -0.000001  -0.000001
  339       10.662588     10.662586  -0.000001  -0.000001
  340       10.714519     10.714517  -0.000000  -0.000000
  341       10.714522     10.714520  -0.000000  -0.000000
  342       10.827552     10.827551  -0.000000  -0.000000
  343       10.827556     10.827554  -0.000000  -0.000000
  344       10.886689     10.886688  -0.000000  -0.000000
  345       10.886695     10.886694  -0.000000  -0.000000
  346       10.907977     10.907975  -0.000000  -0.000000
  347       10.907983     10.907982  -0.000000  -0.000000
  348       10.933382     10.933380  -0.000000  -0.000000
  349       10.933386     10.933385  -0.000000  -0.000000
  350       10.941035     10.941034  -0.000000  -0.000000
  351       10.941042     10.941041  -0.000000  -0.000000
  352       10.950834     10.950833  -0.000000  -0.000000
  353       10.950840     10.950839  -0.000000  -0.000000
  354       11.043935     11.043934  -0.000000  -0.000000
  355       11.043940     11.043939  -0.000000  -0.000000
  356       11.076777     11.076775  -0.000000  -0.000000
  357       11.076781     11.076780  -0.000000  -0.000000
  358       11.078149     11.078145  -0.000000  -0.000000
  359       11.129559     11.129558  -0.000000  -0.000000
  360       11.129564     11.129563  -0.000000  -0.000000
  361       11.161515     11.161513  -0.000000  -0.000000
  362       11.161519     11.161517  -0.000000  -0.000000
  363       11.167459     11.167457  -0.000000  -0.000000
  364       11.167464     11.167462  -0.000000  -0.000000
  365       11.260326     11.260325  -0.000000  -0.000000
  366       11.271094     11.271092  -0.000000  -0.000000
  367       11.271097     11.271095  -0.000000  -0.000000
  368       11.274102     11.274100  -0.000000  -0.000000
  369       11.274107     11.274105  -0.000000  -0.000000
  370       11.429624     11.429621  -0.000000  -0.000000
  371       11.429626     11.429624  -0.000000  -0.000000
  372       11.482718     11.482716  -0.000000  -0.000000
  373       11.482720     11.482718  -0.000000  -0.000000
  374       11.501702     11.501699  -0.000000  -0.000000
  375       11.501703     11.501700  -0.000000  -0.000000
  376       11.536684     11.536682  -0.000000  -0.000000
  377       11.585374     11.585371  -0.000000  -0.000000
  378       11.585376     11.585373  -0.000000  -0.000000
  379       11.690225     11.690223  -0.000000  -0.000000
  380       11.690224     11.690223  -0.000000  -0.000000
  381       11.690963     11.690959  -0.000000  -0.000000
  382       11.690964     11.690961  -0.000000  -0.000000
  383       11.784165     11.784162  -0.000000  -0.000000
  384       11.784167     11.784164  -0.000000  -0.000000
  385       11.888642     11.888640  -0.000000  -0.000000
  386       11.888645     11.888644  -0.000000  -0.000000
  387       11.923256     11.923252  -0.000000  -0.000000
  388       11.932123     11.932120  -0.000000  -0.000000
  389       11.932124     11.932121  -0.000000  -0.000000
  390       12.166142     12.166141  -0.000000  -0.000000
  391       12.212698     12.212696  -0.000000  -0.000000
  392       12.212700     12.212698  -0.000000  -0.000000
  393       12.258921     12.258918  -0.000000  -0.000000
  394       12.258921     12.258920  -0.000000  -0.000000
  395       12.335183     12.335182  -0.000000  -0.000000
  396       12.407318     12.407317  -0.000000  -0.000000
  397       12.497542     12.497541  -0.000000  -0.000000
  398       12.497544     12.497542  -0.000000  -0.000000
  399       12.641904     12.641901  -0.000000  -0.000000
  400       12.641904     12.641901  -0.000000  -0.000000
  401       12.730873     12.730867  -0.000000  -0.000000
  402       12.730891     12.730874  -0.000000  -0.000000
  403       12.813544     12.813538  -0.000000  -0.000000
  404       12.883119     12.883117  -0.000000  -0.000000
  405       12.883151     12.883122  -0.000000  -0.000000
  406       12.949591     12.949582  -0.000000  -0.000000
  407       13.100197     13.100121  -0.000000  -0.000000
  408       13.102608     13.101534  -0.000000  -0.000000
  409       13.120491     13.121125  -0.000000  -0.000000
  410       13.124786     13.126545  -0.000000  -0.000000
  411       13.182800     13.181479  -0.000000  -0.000000
  412       13.195885     13.196344  -0.000000  -0.000000
  413       13.213873     13.212141  -0.000000  -0.000000
  414       13.238608     13.238619  -0.000000  -0.000000
  415       13.240500     13.240414  -0.000000  -0.000000
  416       13.300638     13.266956  -0.000000  -0.000000
 
  0.5000000E-01  0.3469447E-17  0.0000000E+00  0.5000000E-02
    1      -47.483884    -47.483886   1.000000   1.000000
    2      -47.479964    -47.479966   1.000000   1.000000
    3      -47.455146    -47.455147   1.000000   1.000000
    4      -47.455060    -47.455061   1.000000   1.000000
    5      -47.343678    -47.343679   1.000000   1.000000
    6      -47.343600    -47.343602   1.000000   1.000000
    7      -47.288458    -47.288459   1.000000   1.000000
    8      -47.288395    -47.288396   1.000000   1.000000
    9      -47.195452    -47.195453   1.000000   1.000000
   10      -47.195171    -47.195172   1.000000   1.000000
   11      -47.163739    -47.163741   1.000000   1.000000
   12      -47.163318    -47.163320   1.000000   1.000000
   13      -47.097301    -47.097303   1.000000   1.000000
   14      -47.092214    -47.092217   1.000000   1.000000
   15      -23.764748    -23.764749   1.000000   1.000000
   16      -23.764604    -23.764605   1.000000   1.000000
   17      -23.760414    -23.760416   1.000000   1.000000
   18      -23.748843    -23.748844   1.000000   1.000000
   19      -23.748738    -23.748740   1.000000   1.000000
   20      -23.745780    -23.745782   1.000000   1.000000
   21      -23.726999    -23.727001   1.000000   1.000000
   22      -23.726906    -23.726907   1.000000   1.000000
   23      -23.724521    -23.724522   1.000000   1.000000
   24      -23.724163    -23.724164   1.000000   1.000000
   25      -23.718744    -23.718746   1.000000   1.000000
   26      -23.714888    -23.714890   1.000000   1.000000
   27      -23.624084    -23.624086   1.000000   1.000000
   28      -23.624031    -23.624033   1.000000   1.000000
   29      -23.623980    -23.623981   1.000000   1.000000
   30      -23.623927    -23.623928   1.000000   1.000000
   31      -23.599646    -23.599648   1.000000   1.000000
   32      -23.599592    -23.599594   1.000000   1.000000
   33      -23.569891    -23.569893   1.000000   1.000000
   34      -23.569868    -23.569869   1.000000   1.000000
   35      -23.569849    -23.569851   1.000000   1.000000
   36      -23.569825    -23.569826   1.000000   1.000000
   37      -23.535227    -23.535230   1.000000   1.000000
   38      -23.535198    -23.535200   1.000000   1.000000
   39      -23.484805    -23.484807   1.000000   1.000000
   40      -23.484743    -23.484745   1.000000   1.000000
   41      -23.484518    -23.484520   1.000000   1.000000
   42      -23.484456    -23.484457   1.000000   1.000000
   43      -23.441466    -23.441468   1.000000   1.000000
   44      -23.441064    -23.441066   1.000000   1.000000
   45      -23.440923    -23.440924   1.000000   1.000000
   46      -23.440517    -23.440519   1.000000   1.000000
   47      -23.430910    -23.430913   1.000000   1.000000
   48      -23.430596    -23.430599   1.000000   1.000000
   49      -23.409177    -23.409180   1.000000   1.000000
   50      -23.408803    -23.408806   1.000000   1.000000
   51      -23.379870    -23.379873   1.000000   1.000000
   52      -23.379765    -23.379768   1.000000   1.000000
   53      -23.367732    -23.367735   1.000000   1.000000
   54      -23.356497    -23.356500   1.000000   1.000000
   55      -23.356369    -23.356372   1.000000   1.000000
   56      -23.347250    -23.347252   1.000000   1.000000
   57        0.991526      0.991520   1.000000   1.000000
   58        1.228195      1.228190   1.000000   1.000000
   59        1.351710      1.351706   1.000000   1.000000
   60        1.669831      1.669827   1.000000   1.000000
   61        1.934339      1.934334   1.000000   1.000000
   62        2.446942      2.446937   1.000000   1.000000
   63        2.653568      2.653562   1.000000   1.000000
   64        3.391209      3.391204   1.000000   1.000000
   65        3.410438      3.410433   1.000000   1.000000
   66        4.247604      4.247600   1.000000   1.000000
   67        4.310027      4.310022   1.000000   1.000000
   68        4.905931      4.905928   1.000000   1.000000
   69        4.910062      4.910058   1.000000   1.000000
   70        5.101967      5.101965   1.000000   1.000000
   71        5.108768      5.108765   1.000000   1.000000
   72        5.119583      5.119580   1.000000   1.000000
   73        5.143254      5.143252   1.000000   1.000000
   74        5.146729      5.146727   1.000000   1.000000
   75        5.241362      5.241358   1.000000   1.000000
   76        5.282120      5.282117   1.000000   1.000000
   77        5.294959      5.294956   1.000000   1.000000
   78        5.301884      5.301882   1.000000   1.000000
   79        5.308552      5.308549   1.000000   1.000000
   80        5.419483      5.419481   1.000000   1.000000
   81        5.435382      5.435379   1.000000   1.000000
   82        5.450144      5.450141   1.000000   1.000000
   83        5.468276      5.468273   1.000000   1.000000
   84        5.482598      5.482595   1.000000   1.000000
   85        5.535408      5.535406   1.000000   1.000000
   86        5.548849      5.548846   1.000000   1.000000
   87        5.598285      5.598282   1.000000   1.000000
   88        5.643900      5.643897   1.000000   1.000000
   89        5.654189      5.654187   1.000000   1.000000
   90        5.661276      5.661273   1.000000   1.000000
   91        5.705322      5.705320   1.000000   1.000000
   92        5.710981      5.710979   1.000000   1.000000
   93        5.713873      5.713870   1.000000   1.000000
   94        5.736787      5.736785   1.000000   1.000000
   95        5.738048      5.738045   1.000000   1.000000