<?xml version="1.0" encoding="ISO-8859-1"?>
<modeling>
 <generator>
  <i name="program" type="string">vasp </i>
  <i name="version" type="string">5.4.1  </i>
  <i name="subversion" type="string">05Feb16 (build Jan 17 2017 23:57:57) complex                          parallel </i>
  <i name="platform" type="string">IFC91_ompi </i>
  <i name="date" type="string">2019 08 21 </i>
  <i name="time" type="string">17:50:12 </i>
 </generator>
 <incar>
  <i type="string" name="SYSTEM"> Test of VASP submission</i>
  <i type="string" name="PREC">normal</i>
  <i type="int" name="IALGO">    48</i>
  <i type="int" name="ISPIN">     2</i>
  <i type="int" name="NELM">   100</i>
  <i type="int" name="IBRION">     2</i>
  <i type="int" name="NSW">    63</i>
  <i type="int" name="ISIF">     3</i>
  <i type="int" name="ISYM">     2</i>
  <i name="ENCUT">    400.00000000</i>
  <v name="MAGMOM">      0.00000000      0.00000000      1.00000000      1.00000000      1.00000000      1.00000000      1.00000000      1.00000000      1.00000000      1.00000000      1.00000000      1.00000000      1.00000000      1.00000000      1.00000000      1.00000000      1.00000000      1.00000000      1.00000000      1.00000000
      1.00000000      1.00000000      1.00000000      1.00000000      1.00000000      1.00000000      1.00000000      1.00000000      1.00000000      1.00000000      1.00000000      1.00000000      1.00000000      1.00000000      1.00000000      1.00000000      1.00000000      1.00000000      1.00000000      1.00000000
      1.00000000      1.00000000      1.00000000      1.00000000      1.00000000      1.00000000      1.00000000      1.00000000      1.00000000      1.00000000      0.00000000      0.00000000      0.00000000      0.00000000      0.00000000      0.00000000      0.00000000      0.00000000      0.00000000      0.00000000
      0.00000000      0.00000000      0.00000000      0.00000000</v>
  <i type="int" name="ISMEAR">     1</i>
  <i name="SIGMA">      0.20000000</i>
  <i type="logical" name="LWAVE"> F  </i>
  <i type="logical" name="LCHARG"> F  </i>
  <v type="int" name="KPOINT_BSE">    -1     0     0     0</v>
  <i type="int" name="NELM">   100</i>
 </incar>
 <kpoints>
  <generation param="Gamma">
   <v type="int" name="divisions">      20       20        3 </v>
   <v name="usershift">      0.00000000       0.00000000       0.00000000 </v>
   <v name="genvec1">      0.05000000      -0.00000000       0.00000000 </v>
   <v name="genvec2">      0.00000000       0.05000000       0.00000000 </v>
   <v name="genvec3">      0.00000000       0.00000000       0.33333333 </v>
   <v name="shift">      0.00000000       0.00000000       0.00000000 </v>
  </generation>
  <varray name="kpointlist" >
   <v>       0.00000000       0.00000000       0.00000000 </v>
   <v>       0.05000000       0.00000000       0.00000000 </v>
   <v>       0.10000000       0.00000000       0.00000000 </v>
   <v>       0.15000000       0.00000000       0.00000000 </v>
   <v>       0.20000000      -0.00000000       0.00000000 </v>
   <v>       0.25000000      -0.00000000       0.00000000 </v>
   <v>       0.30000000      -0.00000000       0.00000000 </v>
   <v>       0.35000000       0.00000000       0.00000000 </v>
   <v>       0.40000000      -0.00000000       0.00000000 </v>
   <v>       0.45000000      -0.00000000       0.00000000 </v>
   <v>       0.50000000      -0.00000000       0.00000000 </v>
   <v>       0.05000000       0.05000000       0.00000000 </v>
   <v>       0.10000000       0.05000000       0.00000000 </v>
   <v>       0.15000000       0.05000000       0.00000000 </v>
   <v>       0.20000000       0.05000000       0.00000000 </v>
   <v>       0.25000000       0.05000000       0.00000000 </v>
   <v>       0.30000000       0.05000000       0.00000000 </v>
   <v>       0.35000000       0.05000000       0.00000000 </v>
   <v>       0.40000000       0.05000000       0.00000000 </v>
   <v>       0.45000000       0.05000000       0.00000000 </v>
   <v>       0.10000000       0.10000000       0.00000000 </v>
   <v>       0.15000000       0.10000000       0.00000000 </v>
   <v>       0.20000000       0.10000000       0.00000000 </v>
   <v>       0.25000000       0.10000000       0.00000000 </v>
   <v>       0.30000000       0.10000000       0.00000000 </v>
   <v>       0.35000000       0.10000000       0.00000000 </v>
   <v>       0.40000000       0.10000000       0.00000000 </v>
   <v>       0.45000000       0.10000000       0.00000000 </v>
   <v>       0.15000000       0.15000000       0.00000000 </v>
   <v>       0.20000000       0.15000000       0.00000000 </v>
   <v>       0.25000000       0.15000000       0.00000000 </v>
   <v>       0.30000000       0.15000000       0.00000000 </v>
   <v>       0.35000000       0.15000000       0.00000000 </v>
   <v>       0.40000000       0.15000000       0.00000000 </v>
   <v>       0.20000000       0.20000000       0.00000000 </v>
   <v>       0.25000000       0.20000000       0.00000000 </v>
   <v>       0.30000000       0.20000000       0.00000000 </v>
   <v>       0.35000000       0.20000000       0.00000000 </v>
   <v>       0.40000000       0.20000000       0.00000000 </v>
   <v>       0.25000000       0.25000000       0.00000000 </v>
   <v>       0.30000000       0.25000000       0.00000000 </v>
   <v>       0.35000000       0.25000000       0.00000000 </v>
   <v>       0.30000000       0.30000000       0.00000000 </v>
   <v>       0.35000000       0.30000000       0.00000000 </v>
   <v>       0.00000000       0.00000000       0.33333333 </v>
   <v>       0.05000000       0.00000000       0.33333333 </v>
   <v>       0.10000000       0.00000000       0.33333333 </v>
   <v>       0.15000000       0.00000000       0.33333333 </v>
   <v>       0.20000000      -0.00000000       0.33333333 </v>
   <v>       0.25000000      -0.00000000       0.33333333 </v>
   <v>       0.30000000      -0.00000000       0.33333333 </v>
   <v>       0.35000000       0.00000000       0.33333333 </v>
   <v>       0.40000000      -0.00000000       0.33333333 </v>
   <v>       0.45000000      -0.00000000       0.33333333 </v>
   <v>       0.50000000      -0.00000000       0.33333333 </v>
   <v>      -0.45000000       0.00000000       0.33333333 </v>
   <v>      -0.40000000       0.00000000       0.33333333 </v>
   <v>      -0.35000000       0.00000000       0.33333333 </v>
   <v>      -0.30000000       0.00000000       0.33333333 </v>
   <v>      -0.25000000       0.00000000       0.33333333 </v>
   <v>      -0.20000000       0.00000000       0.33333333 </v>
   <v>      -0.15000000      -0.00000000       0.33333333 </v>
   <v>      -0.10000000      -0.00000000       0.33333333 </v>
   <v>      -0.05000000      -0.00000000       0.33333333 </v>
   <v>       0.05000000       0.05000000       0.33333333 </v>
   <v>       0.10000000       0.05000000       0.33333333 </v>
   <v>       0.15000000       0.05000000       0.33333333 </v>
   <v>       0.20000000       0.05000000       0.33333333 </v>
   <v>       0.25000000       0.05000000       0.33333333 </v>
   <v>       0.30000000       0.05000000       0.33333333 </v>
   <v>       0.35000000       0.05000000       0.33333333 </v>
   <v>       0.40000000       0.05000000       0.33333333 </v>
   <v>       0.45000000       0.05000000       0.33333333 </v>
   <v>       0.50000000       0.05000000       0.33333333 </v>
   <v>      -0.45000000       0.05000000       0.33333333 </v>
   <v>      -0.40000000       0.05000000       0.33333333 </v>
   <v>      -0.35000000       0.05000000       0.33333333 </v>
   <v>      -0.30000000       0.05000000       0.33333333 </v>
   <v>      -0.25000000       0.05000000       0.33333333 </v>
   <v>      -0.20000000       0.05000000       0.33333333 </v>
   <v>      -0.15000000       0.05000000       0.33333333 </v>
   <v>       0.10000000       0.10000000       0.33333333 </v>
   <v>       0.15000000       0.10000000       0.33333333 </v>
   <v>       0.20000000       0.10000000       0.33333333 </v>
   <v>       0.25000000       0.10000000       0.33333333 </v>
   <v>       0.30000000       0.10000000       0.33333333 </v>
   <v>       0.35000000       0.10000000       0.33333333 </v>
   <v>       0.40000000       0.10000000       0.33333333 </v>
   <v>       0.45000000       0.10000000       0.33333333 </v>
   <v>       0.50000000       0.10000000       0.33333333 </v>
   <v>      -0.45000000       0.10000000       0.33333333 </v>
   <v>      -0.40000000       0.10000000       0.33333333 </v>
   <v>      -0.35000000       0.10000000       0.33333333 </v>
   <v>      -0.30000000       0.10000000       0.33333333 </v>
   <v>      -0.25000000       0.10000000       0.33333333 </v>
   <v>       0.15000000       0.15000000       0.33333333 </v>
   <v>       0.20000000       0.15000000       0.33333333 </v>
   <v>       0.25000000       0.15000000       0.33333333 </v>
   <v>       0.30000000       0.15000000       0.33333333 </v>
   <v>       0.35000000       0.15000000       0.33333333 </v>
   <v>       0.40000000       0.15000000       0.33333333 </v>
   <v>       0.45000000       0.15000000       0.33333333 </v>
   <v>       0.50000000       0.15000000       0.33333333 </v>
   <v>      -0.45000000       0.15000000       0.33333333 </v>
   <v>      -0.40000000       0.15000000       0.33333333 </v>
   <v>      -0.35000000       0.15000000       0.33333333 </v>
   <v>       0.20000000       0.20000000       0.33333333 </v>
   <v>       0.25000000       0.20000000       0.33333333 </v>
   <v>       0.30000000       0.20000000       0.33333333 </v>
   <v>       0.35000000       0.20000000       0.33333333 </v>
   <v>       0.40000000       0.20000000       0.33333333 </v>
   <v>       0.45000000       0.20000000       0.33333333 </v>
   <v>       0.50000000       0.20000000       0.33333333 </v>
   <v>      -0.45000000       0.20000000       0.33333333 </v>
   <v>       0.25000000       0.25000000       0.33333333 </v>
   <v>       0.30000000       0.25000000       0.33333333 </v>
   <v>       0.35000000       0.25000000       0.33333333 </v>
   <v>       0.40000000       0.25000000       0.33333333 </v>
   <v>       0.45000000       0.25000000       0.33333333 </v>
   <v>       0.30000000       0.30000000       0.33333333 </v>
   <v>       0.35000000       0.30000000       0.33333333 </v>
  </varray>
  <varray name="weights" >
   <v>       0.00083333 </v>
   <v>       0.00500000 </v>
   <v>       0.00500000 </v>
   <v>       0.00500000 </v>
   <v>       0.00500000 </v>
   <v>       0.00500000 </v>
   <v>       0.00500000 </v>
   <v>       0.00500000 </v>
   <v>       0.00500000 </v>
   <v>       0.00500000 </v>
   <v>       0.00250000 </v>
   <v>       0.00500000 </v>
   <v>       0.01000000 </v>
   <v>       0.01000000 </v>
   <v>       0.01000000 </v>
   <v>       0.01000000 </v>
   <v>       0.01000000 </v>
   <v>       0.01000000 </v>
   <v>       0.01000000 </v>
   <v>       0.01000000 </v>
   <v>       0.00500000 </v>
   <v>       0.01000000 </v>
   <v>       0.01000000 </v>
   <v>       0.01000000 </v>
   <v>       0.01000000 </v>
   <v>       0.01000000 </v>
   <v>       0.01000000 </v>
   <v>       0.00500000 </v>
   <v>       0.00500000 </v>
   <v>       0.01000000 </v>
   <v>       0.01000000 </v>
   <v>       0.01000000 </v>
   <v>       0.01000000 </v>
   <v>       0.01000000 </v>
   <v>       0.00500000 </v>
   <v>       0.01000000 </v>
   <v>       0.01000000 </v>
   <v>       0.01000000 </v>
   <v>       0.00500000 </v>
   <v>       0.00500000 </v>
   <v>       0.01000000 </v>
   <v>       0.01000000 </v>
   <v>       0.00500000 </v>
   <v>       0.00500000 </v>
   <v>       0.00166667 </v>
   <v>       0.00500000 </v>
   <v>       0.00500000 </v>
   <v>       0.00500000 </v>
   <v>       0.00500000 </v>
   <v>       0.00500000 </v>
   <v>       0.00500000 </v>
   <v>       0.00500000 </v>
   <v>       0.00500000 </v>
   <v>       0.00500000 </v>
   <v>       0.00500000 </v>
   <v>       0.00500000 </v>
   <v>       0.00500000 </v>
   <v>       0.00500000 </v>
   <v>       0.00500000 </v>
   <v>       0.00500000 </v>
   <v>       0.00500000 </v>
   <v>       0.00500000 </v>
   <v>       0.00500000 </v>
   <v>       0.00500000 </v>
   <v>       0.01000000 </v>
   <v>       0.01000000 </v>
   <v>       0.01000000 </v>
   <v>       0.01000000 </v>
   <v>       0.01000000 </v>
   <v>       0.01000000 </v>
   <v>       0.01000000 </v>
   <v>       0.01000000 </v>
   <v>       0.01000000 </v>
   <v>       0.01000000 </v>
   <v>       0.01000000 </v>
   <v>       0.01000000 </v>
   <v>       0.01000000 </v>
   <v>       0.01000000 </v>
   <v>       0.01000000 </v>
   <v>       0.01000000 </v>
   <v>       0.01000000 </v>
   <v>       0.01000000 </v>
   <v>       0.01000000 </v>
   <v>       0.01000000 </v>
   <v>       0.01000000 </v>
   <v>       0.01000000 </v>
   <v>       0.01000000 </v>
   <v>       0.01000000 </v>
   <v>       0.01000000 </v>
   <v>       0.01000000 </v>
   <v>       0.01000000 </v>
   <v>       0.01000000 </v>
   <v>       0.01000000 </v>
   <v>       0.01000000 </v>
   <v>       0.01000000 </v>
   <v>       0.01000000 </v>
   <v>       0.01000000 </v>
   <v>       0.01000000 </v>
   <v>       0.01000000 </v>
   <v>       0.01000000 </v>
   <v>       0.01000000 </v>
   <v>       0.01000000 </v>
   <v>       0.01000000 </v>
   <v>       0.01000000 </v>
   <v>       0.01000000 </v>
   <v>       0.01000000 </v>
   <v>       0.01000000 </v>
   <v>       0.01000000 </v>
   <v>       0.01000000 </v>
   <v>       0.01000000 </v>
   <v>       0.01000000 </v>
   <v>       0.01000000 </v>
   <v>       0.01000000 </v>
   <v>       0.01000000 </v>
   <v>       0.01000000 </v>
   <v>       0.01000000 </v>
   <v>       0.01000000 </v>
   <v>       0.01000000 </v>
   <v>       0.01000000 </v>
   <v>       0.01000000 </v>
   <v>       0.01000000 </v>
  </varray>
 </kpoints>
 <parameters>
  <separator name="general" >
   <i type="string" name="SYSTEM">Test of VASP submission</i>
   <i type="logical" name="LCOMPAT"> F  </i>
  </separator>
  <separator name="electronic" >
   <i type="string" name="PREC">normal</i>
   <i name="ENMAX">    400.00000000</i>
   <i name="ENAUG">    544.56500000</i>
   <i name="EDIFF">      0.00010000</i>
   <i type="int" name="IALGO">    48</i>
   <i type="int" name="IWAVPR">    11</i>
   <i type="int" name="NBANDS">   416</i>
   <i name="NELECT">    654.00000000</i>
   <i type="int" name="TURBO">     0</i>
   <i type="int" name="IRESTART">     0</i>
   <i type="int" name="NREBOOT">     0</i>
   <i type="int" name="NMIN">     0</i>
   <i name="EREF">      0.00000000</i>
   <separator name="electronic smearing" >
    <i type="int" name="ISMEAR">     1</i>
    <i name="SIGMA">      0.20000000</i>
    <i name="KSPACING">      0.50000000</i>
    <i type="logical" name="KGAMMA"> T  </i>
   </separator>
   <separator name="electronic projectors" >
    <i type="logical" name="LREAL"> F  </i>
    <v name="ROPT">      0.00000000      0.00000000      0.00000000</v>
    <i type="int" name="LMAXPAW">  -100</i>
    <i type="int" name="LMAXMIX">     2</i>
    <i type="logical" name="NLSPLINE"> F  </i>
   </separator>
   <separator name="electronic startup" >
    <i type="int" name="ISTART">     0</i>
    <i type="int" name="ICHARG">     2</i>
    <i type="int" name="INIWAV">     1</i>
   </separator>
   <separator name="electronic spin" >
    <i type="int" name="ISPIN">     2</i>
    <i type="logical" name="LNONCOLLINEAR"> F  </i>
    <v name="MAGMOM">      0.00000000      0.00000000      1.00000000      1.00000000      1.00000000      1.00000000      1.00000000      1.00000000      1.00000000      1.00000000      1.00000000      1.00000000      1.00000000      1.00000000      1.00000000      1.00000000      1.00000000      1.00000000      1.00000000      1.00000000
      1.00000000      1.00000000      1.00000000      1.00000000      1.00000000      1.00000000      1.00000000      1.00000000      1.00000000      1.00000000      1.00000000      1.00000000      1.00000000      1.00000000      1.00000000      1.00000000      1.00000000      1.00000000      1.00000000      1.00000000
      1.00000000      1.00000000      1.00000000      1.00000000      1.00000000      1.00000000      1.00000000      1.00000000      1.00000000      1.00000000      0.00000000      0.00000000      0.00000000      0.00000000      0.00000000      0.00000000      0.00000000      0.00000000      0.00000000      0.00000000
      0.00000000      0.00000000      0.00000000      0.00000000</v>
    <i name="NUPDOWN">     -1.00000000</i>
    <i type="logical" name="LSORBIT"> F  </i>
    <v name="SAXIS">      0.00000000      0.00000000      1.00000000</v>
    <i type="logical" name="LSPIRAL"> F  </i>
    <v name="QSPIRAL">      0.00000000      0.00000000      0.00000000</v>
    <i type="logical" name="LZEROZ"> F  </i>
   </separator>
   <separator name="electronic exchange-correlation" >
    <i type="logical" name="LASPH"> F  </i>
    <i type="logical" name="LMETAGGA"> F  </i>
   </separator>
   <separator name="electronic convergence" >
    <i type="int" name="NELM">   100</i>
    <i type="int" name="NELMDL">   -12</i>
    <i type="int" name="NELMIN">     2</i>
    <i name="ENINI">    400.00000000</i>
    <separator name="electronic convergence detail" >
     <i type="logical" name="LDIAG"> T  </i>
     <i type="logical" name="LSUBROT"> F  </i>
     <i name="WEIMIN">      0.00100000</i>
     <i name="EBREAK">      0.00000006</i>
     <i name="DEPER">      0.30000000</i>
     <i type="int" name="NRMM">     4</i>
     <i name="TIME">      0.40000000</i>
    </separator>
   </separator>
   <separator name="electronic mixer" >
    <i name="AMIX">      0.40000000</i>
    <i name="BMIX">      1.00000000</i>
    <i name="AMIN">      0.10000000</i>
    <i name="AMIX_MAG">      1.60000000</i>
    <i name="BMIX_MAG">      1.00000000</i>
    <separator name="electronic mixer details" >
     <i type="int" name="IMIX">     4</i>
     <i type="logical" name="MIXFIRST"> F  </i>
     <i type="int" name="MAXMIX">   -45</i>
     <i name="WC">    100.00000000</i>
     <i type="int" name="INIMIX">     1</i>
     <i type="int" name="MIXPRE">     1</i>
     <i type="int" name="MREMOVE">     5</i>
    </separator>
   </separator>
   <separator name="electronic dipolcorrection" >
    <i type="logical" name="LDIPOL"> F  </i>
    <i type="logical" name="LMONO"> F  </i>
    <i type="int" name="IDIPOL">     0</i>
    <i name="EPSILON">      1.00000000</i>
    <v name="DIPOL">   -100.00000000   -100.00000000   -100.00000000</v>
    <i name="EFIELD">      0.00000000</i>
   </separator>
  </separator>
  <separator name="grids" >
   <i type="int" name="NGX">    28</i>
   <i type="int" name="NGY">    28</i>
   <i type="int" name="NGZ">   162</i>
   <i type="int" name="NGXF">    56</i>
   <i type="int" name="NGYF">    56</i>
   <i type="int" name="NGZF">   324</i>
   <i type="logical" name="ADDGRID"> F  </i>
  </separator>
  <separator name="ionic" >
   <i type="int" name="NSW">    63</i>
   <i type="int" name="IBRION">     2</i>
   <i type="int" name="ISIF">     3</i>
   <i name="PSTRESS">      0.00000000</i>
   <i name="EDIFFG">      0.00100000</i>
   <i type="int" name="NFREE">     1</i>
   <i name="POTIM">      0.50000000</i>
   <i name="SMASS">     -3.00000000</i>
   <i name="SCALEE">      1.00000000</i>
  </separator>
  <separator name="ionic md" >
   <i name="TEBEG">      0.00010000</i>
   <i name="TEEND">      0.00010000</i>
   <i type="int" name="NBLOCK">     1</i>
   <i type="int" name="KBLOCK">    63</i>
   <i type="int" name="NPACO">   256</i>
   <i name="APACO">     16.00000000</i>
  </separator>
  <separator name="symmetry" >
   <i type="int" name="ISYM">     2</i>
   <i name="SYMPREC">      0.00001000</i>
  </separator>
  <separator name="dos" >
   <i type="logical" name="LORBIT"> F  </i>
   <v name="RWIGS">     -1.00000000     -1.00000000     -1.00000000</v>
   <i type="int" name="NEDOS">   301</i>
   <i name="EMIN">     10.00000000</i>
   <i name="EMAX">    -10.00000000</i>
   <i name="EFERMI">      0.00000000</i>
  </separator>
  <separator name="writing" >
   <i type="int" name="NWRITE">     2</i>
   <i type="logical" name="LWAVE"> F  </i>
   <i type="logical" name="LCHARG"> F  </i>
   <i type="logical" name="LPARD"> F  </i>
   <i type="logical" name="LVTOT"> F  </i>
   <i type="logical" name="LVHAR"> F  </i>
   <i type="logical" name="LELF"> F  </i>
   <i type="logical" name="LOPTICS"> F  </i>
   <v name="STM">      0.00000000      0.00000000      0.00000000      0.00000000      0.00000000      0.00000000      0.00000000</v>
  </separator>
  <separator name="performance" >
   <i type="int" name="NPAR">     4</i>
   <i type="int" name="NSIM">     4</i>
   <i type="int" name="NBLK">    -1</i>
   <i type="logical" name="LPLANE"> T  </i>
   <i type="logical" name="LSCALAPACK"> T  </i>
   <i type="logical" name="LSCAAWARE"> F  </i>
   <i type="logical" name="LSCALU"> F  </i>
   <i type="logical" name="LASYNC"> F  </i>
   <i type="logical" name="LORBITALREAL"> F  </i>
  </separator>
  <separator name="miscellaneous" >
   <i type="int" name="IDIOT">     3</i>
   <i type="logical" name="LMUSIC"> F  </i>
   <v name="POMASS">     26.98100000     58.69000000     47.88000000</v>
   <v name="DARWINR">      0.00000000      0.00000000      0.00000000</v>
   <v name="DARWINV">      1.00000000      1.00000000      1.00000000</v>
   <i type="logical" name="LCORR"> T  </i>
  </separator>
  <i type="logical" name="GGA_COMPAT"> T  </i>
  <i type="logical" name="LBERRY"> F  </i>
  <i type="int" name="ICORELEVEL">     0</i>
  <i type="logical" name="LDAU"> F  </i>
  <i type="int" name="I_CONSTRAINED_M">     0</i>
  <separator name="electronic exchange-correlation" >
   <i type="string" name="GGA">--</i>
   <i type="int" name="VOSKOWN">     0</i>
   <i type="logical" name="LHFCALC"> F  </i>
   <i type="string" name="PRECFOCK"></i>
   <i type="logical" name="LSYMGRAD"> F  </i>
   <i type="logical" name="LHFONE"> F  </i>
   <i type="logical" name="LRHFCALC"> F  </i>
   <i type="logical" name="LTHOMAS"> F  </i>
   <i type="logical" name="LMODELHF"> F  </i>
   <i name="ENCUT4O">     -1.00000000</i>
   <i type="int" name="EXXOEP">     0</i>
   <i type="int" name="FOURORBIT">     0</i>
   <i name="AEXX">      0.00000000</i>
   <i name="HFALPHA">      0.00000000</i>
   <i name="MCALPHA">      0.00000000</i>
   <i name="ALDAX">      1.00000000</i>
   <i name="AGGAX">      1.00000000</i>
   <i name="ALDAC">      1.00000000</i>
   <i name="AGGAC">      1.00000000</i>
   <i type="int" name="NKREDX">     1</i>
   <i type="int" name="NKREDY">     1</i>
   <i type="int" name="NKREDZ">     1</i>
   <i type="logical" name="SHIFTRED"> F  </i>
   <i type="logical" name="ODDONLY"> F  </i>
   <i type="logical" name="EVENONLY"> F  </i>
   <i type="int" name="LMAXFOCK">     0</i>
   <i type="int" name="NMAXFOCKAE">     0</i>
   <i type="logical" name="LFOCKAEDFT"> F  </i>
   <i name="HFSCREEN">      0.00000000</i>
   <i name="HFSCREENC">      0.00000000</i>
   <i type="int" name="NBANDSGWLOW">     0</i>
  </separator>
  <separator name="vdW DFT" >
   <i type="logical" name="LUSE_VDW"> F  </i>
   <i name="Zab_VDW">     -0.84910000</i>
   <i name="PARAM1">      0.12340000</i>
   <i name="PARAM2">      1.00000000</i>
   <i name="PARAM3">      0.00000000</i>
  </separator>
  <separator name="model GW" >
   <i type="int" name="MODEL_GW">     0</i>
   <i name="MODEL_EPS0">      6.92864924</i>
   <i name="MODEL_ALPHA">      1.00000000</i>
  </separator>
  <separator name="linear response parameters" >
   <i type="logical" name="LEPSILON"> F  </i>
   <i type="logical" name="LRPA"> F  </i>
   <i type="logical" name="LNABLA"> F  </i>
   <i type="logical" name="LVEL"> F  </i>
   <i type="int" name="KINTER">     0</i>
   <i name="CSHIFT">      0.10000000</i>
   <i name="OMEGAMAX">     -1.00000000</i>
   <i name="DEG_THRESHOLD">      0.00200000</i>
  </separator>
  <separator name="orbital magnetization" >
   <i type="logical" name="NUCIND"> F  </i>
   <v name="MAGPOS">      0.00000000      0.00000000      0.00000000</v>
   <i type="logical" name="LNICSALL"> T  </i>
   <i type="logical" name="ORBITALMAG"> F  </i>
   <i type="logical" name="LMAGBLOCH"> F  </i>
   <i type="logical" name="LCHIMAG"> F  </i>
   <i type="logical" name="LGAUGE"> T  </i>
   <i type="int" name="MAGATOM">     0</i>
   <v name="MAGDIPOL">      0.00000000      0.00000000      0.00000000</v>
   <v name="AVECCONST">      0.00000000      0.00000000      0.00000000</v>
  </separator>
  <separator name="response functions" >
   <i type="logical" name="LADDER"> F  </i>
   <i type="logical" name="LFXC"> F  </i>
   <i type="logical" name="LHARTREE"> T  </i>
   <i type="int" name="IBSE">     0</i>
   <v type="int" name="KPOINT">    -1     0     0     0</v>
   <i type="logical" name="LTCTE"> F  </i>
   <i type="logical" name="LTETE"> F  </i>
   <i type="logical" name="LTRIPLET"> F  </i>
   <i type="logical" name="LFXCEPS"> F  </i>
   <i type="logical" name="LFXHEG"> F  </i>
   <i type="int" name="NATURALO">     0</i>
   <i type="logical" name="L2ORDER"> F  </i>
   <i type="logical" name="LUSEW"> F  </i>
   <i name="ENCUTGW">     -2.00000000</i>
   <i name="ENCUTGWSOFT">     -2.00000000</i>
   <i name="ENCUTLF">     -1.00000000</i>
   <i type="int" name="LMAXMP2">    -1</i>
   <i name="SCISSOR">      0.00000000</i>
   <i type="int" name="NOMEGA">     0</i>
   <i type="int" name="NOMEGAR">     0</i>
   <i type="int" name="NBANDSGW">    -1</i>
   <i type="int" name="NBANDSO">    -1</i>
   <i type="int" name="NBANDSV">    -1</i>
   <i type="int" name="NELM">   100</i>
   <i type="int" name="NELMHF">     1</i>
   <i type="int" name="DIM">     3</i>
   <i type="int" name="ANTIRES">     0</i>
   <i name="OMEGAMAX">    -30.00000000</i>
   <i name="OMEGAMIN">    -30.00000000</i>
   <i name="OMEGATL">   -200.00000000</i>
   <i type="int" name="OMEGAGRID">     0</i>
   <i name="CSHIFT">     -0.10000000</i>
   <i type="logical" name="SELFENERGY"> F  </i>
   <i type="logical" name="LSPECTRAL"> F  </i>
   <i type="logical" name="LSPECTRALGW"> F  </i>
   <i type="logical" name="LSINGLES"> F  </i>
   <i type="logical" name="LFERMIGW"> F  </i>
   <i type="logical" name="ODDONLYGW"> F  </i>
   <i type="logical" name="EVENONLYGW"> F  </i>
   <i type="int" name="NKREDLFX">     1</i>
   <i type="int" name="NKREDLFY">     1</i>
   <i type="int" name="NKREDLFZ">     1</i>
   <i type="int" name="MAXMEM">  1800</i>
   <i type="int" name="TELESCOPE">     0</i>
   <i type="int" name="TAUPAR">     1</i>
   <i type="int" name="OMEGAPAR">    -1</i>
   <i name="LAMBDA">      1.00000000</i>
  </separator>
  <separator name="External order field" >
   <i name="OFIELD_KAPPA">      0.00000000</i>
   <v name="OFIELD_K">      0.00000000      0.00000000      0.00000000</v>
   <i name="OFIELD_Q6_NEAR">      0.00000000</i>
   <i name="OFIELD_Q6_FAR">      0.00000000</i>
   <i name="OFIELD_A">      0.00000000</i>
  </separator>
 </parameters>
 <atominfo>
  <atoms>      64 </atoms>
  <types>       3 </types>
  <array name="atoms" >
   <dimension dim="1">ion</dimension>
   <field type="string">element</field>
   <field type="int">atomtype</field>
   <set>
    <rc><c>Al</c><c>   1</c></rc>
    <rc><c>Al</c><c>   1</c></rc>
    <rc><c>Ni</c><c>   2</c></rc>
    <rc><c>Ni</c><c>   2</c></rc>
    <rc><c>Ni</c><c>   2</c></rc>
    <rc><c>Ni</c><c>   2</c></rc>
    <rc><c>Ni</c><c>   2</c></rc>
    <rc><c>Ni</c><c>   2</c></rc>
    <rc><c>Ni</c><c>   2</c></rc>
    <rc><c>Ni</c><c>   2</c></rc>
    <rc><c>Ni</c><c>   2</c></rc>
    <rc><c>Ni</c><c>   2</c></rc>
    <rc><c>Ni</c><c>   2</c></rc>
    <rc><c>Ni</c><c>   2</c></rc>
    <rc><c>Ni</c><c>   2</c></rc>
    <rc><c>Ni</c><c>   2</c></rc>
    <rc><c>Ni</c><c>   2</c></rc>
    <rc><c>Ni</c><c>   2</c></rc>
    <rc><c>Ni</c><c>   2</c></rc>
    <rc><c>Ni</c><c>   2</c></rc>
    <rc><c>Ni</c><c>   2</c></rc>
    <rc><c>Ni</c><c>   2</c></rc>
    <rc><c>Ni</c><c>   2</c></rc>
    <rc><c>Ni</c><c>   2</c></rc>
    <rc><c>Ni</c><c>   2</c></rc>
    <rc><c>Ni</c><c>   2</c></rc>
    <rc><c>Ni</c><c>   2</c></rc>
    <rc><c>Ni</c><c>   2</c></rc>
    <rc><c>Ni</c><c>   2</c></rc>
    <rc><c>Ni</c><c>   2</c></rc>
    <rc><c>Ni</c><c>   2</c></rc>
    <rc><c>Ni</c><c>   2</c></rc>
    <rc><c>Ni</c><c>   2</c></rc>
    <rc><c>Ni</c><c>   2</c></rc>
    <rc><c>Ni</c><c>   2</c></rc>
    <rc><c>Ni</c><c>   2</c></rc>
    <rc><c>Ni</c><c>   2</c></rc>
    <rc><c>Ni</c><c>   2</c></rc>
    <rc><c>Ni</c><c>   2</c></rc>
    <rc><c>Ni</c><c>   2</c></rc>
    <rc><c>Ni</c><c>   2</c></rc>
    <rc><c>Ni</c><c>   2</c></rc>
    <rc><c>Ni</c><c>   2</c></rc>
    <rc><c>Ni</c><c>   2</c></rc>
    <rc><c>Ni</c><c>   2</c></rc>
    <rc><c>Ni</c><c>   2</c></rc>
    <rc><c>Ni</c><c>   2</c></rc>
    <rc><c>Ni</c><c>   2</c></rc>
    <rc><c>Ni</c><c>   2</c></rc>
    <rc><c>Ni</c><c>   2</c></rc>
    <rc><c>Ti</c><c>   3</c></rc>
    <rc><c>Ti</c><c>   3</c></rc>
    <rc><c>Ti</c><c>   3</c></rc>
    <rc><c>Ti</c><c>   3</c></rc>
    <rc><c>Ti</c><c>   3</c></rc>
    <rc><c>Ti</c><c>   3</c></rc>
    <rc><c>Ti</c><c>   3</c></rc>
    <rc><c>Ti</c><c>   3</c></rc>
    <rc><c>Ti</c><c>   3</c></rc>
    <rc><c>Ti</c><c>   3</c></rc>
    <rc><c>Ti</c><c>   3</c></rc>
    <rc><c>Ti</c><c>   3</c></rc>
    <rc><c>Ti</c><c>   3</c></rc>
    <rc><c>Ti</c><c>   3</c></rc>
   </set>
  </array>
  <array name="atomtypes" >
   <dimension dim="1">type</dimension>
   <field type="int">atomspertype</field>
   <field type="string">element</field>
   <field>mass</field>
   <field>valence</field>
   <field type="string">pseudopotential</field>
   <set>
    <rc><c>   2</c><c>Al</c><c>     26.98100000</c><c>      3.00000000</c><c>  PAW_PBE Al 04Jan2001                  </c></rc>
    <rc><c>  48</c><c>Ni</c><c>     58.69000000</c><c>     10.00000000</c><c>  PAW_PBE Ni 02Aug2007                  </c></rc>
    <rc><c>  14</c><c>Ti</c><c>     47.88000000</c><c>     12.00000000</c><c>  PAW_PBE Ti_sv 26Sep2005               </c></rc>
   </set>
  </array>
 </atominfo>
 <structure name="initialpos" >
  <crystal>
   <varray name="basis" >
    <v>       5.07419800       0.00000000       0.00000000 </v>
    <v>      -2.53709900       4.39438500       0.00000000 </v>
    <v>       0.00000000       0.00000000      33.14452400 </v>
   </varray>
   <i name="volume">    739.05591928 </i>
   <varray name="rec_basis" >
    <v>       0.19707548       0.11378156       0.00000000 </v>
    <v>       0.00000000       0.22756313       0.00000000 </v>
    <v>       0.00000000       0.00000000       0.03017090 </v>
   </varray>
  </crystal>
  <varray name="positions" >
   <v>       0.33333330       0.66666670       0.93750000 </v>
   <v>       0.33333330       0.66666670       0.12500000 </v>
   <v>       0.16666670       0.33333330       0.75000000 </v>
   <v>       0.50000000       0.00000000       0.31250000 </v>
   <v>       0.50000000       0.50000000       0.81250000 </v>
   <v>       0.50000000       0.50000000       0.31250000 </v>
   <v>       0.66666670       0.83333330       0.75000000 </v>
   <v>       0.66666670       0.83333330       0.25000000 </v>
   <v>       0.16666670       0.83333330       0.75000000 </v>
   <v>       0.16666670       0.83333330       0.25000000 </v>
   <v>       0.00000000       0.50000000       0.31250000 </v>
   <v>       0.16666670       0.33333330       0.25000000 </v>
   <v>       0.00000000       0.50000000       0.68750000 </v>
   <v>       0.00000000       0.50000000       0.18750000 </v>
   <v>       0.50000000       0.00000000       0.68750000 </v>
   <v>       0.50000000       0.00000000       0.18750000 </v>
   <v>       0.50000000       0.50000000       0.68750000 </v>
   <v>       0.50000000       0.50000000       0.18750000 </v>
   <v>       0.50000000       0.00000000       0.81250000 </v>
   <v>       0.83333330       0.66666670       0.12500000 </v>
   <v>       0.00000000       0.50000000       0.81250000 </v>
   <v>       0.16666670       0.33333330       0.37500000 </v>
   <v>       0.16666670       0.33333330       0.87500000 </v>
   <v>       0.16666670       0.83333330       0.37500000 </v>
   <v>       0.16666670       0.83333330       0.87500000 </v>
   <v>       0.66666670       0.83333330       0.37500000 </v>
   <v>       0.66666670       0.83333330       0.87500000 </v>
   <v>       0.33333330       0.16666670       0.43750000 </v>
   <v>       0.33333330       0.16666670       0.93750000 </v>
   <v>       0.83333330       0.16666670       0.43750000 </v>
   <v>       0.83333330       0.16666670       0.93750000 </v>
   <v>       0.83333330       0.66666670       0.43750000 </v>
   <v>       0.83333330       0.66666670       0.93750000 </v>
   <v>       0.83333330       0.66666670       0.62500000 </v>
   <v>       0.50000000       0.50000000       0.00000000 </v>
   <v>       0.50000000       0.50000000       0.50000000 </v>
   <v>       0.50000000       0.00000000       0.00000000 </v>
   <v>       0.50000000       0.00000000       0.50000000 </v>
   <v>       0.00000000       0.50000000       0.00000000 </v>
   <v>       0.00000000       0.50000000       0.50000000 </v>
   <v>       0.16666670       0.33333330       0.06250000 </v>
   <v>       0.16666670       0.33333330       0.56250000 </v>
   <v>       0.16666670       0.83333330       0.06250000 </v>
   <v>       0.16666670       0.83333330       0.56250000 </v>
   <v>       0.66666670       0.83333330       0.06250000 </v>
   <v>       0.66666670       0.83333330       0.56250000 </v>
   <v>       0.33333330       0.16666670       0.12500000 </v>
   <v>       0.33333330       0.16666670       0.62500000 </v>
   <v>       0.83333330       0.16666670       0.12500000 </v>
   <v>       0.83333330       0.16666670       0.62500000 </v>
   <v>       0.00000000       0.00000000       0.50000000 </v>
   <v>       0.66666670       0.33333330       0.06250000 </v>
   <v>       0.66666670       0.33333330       0.56250000 </v>
   <v>       0.33333330       0.66666670       0.62500000 </v>
   <v>       0.00000000       0.00000000       0.18750000 </v>
   <v>       0.00000000       0.00000000       0.68750000 </v>
   <v>       0.66666670       0.33333330       0.25000000 </v>
   <v>       0.66666670       0.33333330       0.75000000 </v>
   <v>       0.00000000       0.00000000       0.31250000 </v>
   <v>       0.00000000       0.00000000       0.81250000 </v>
   <v>       0.66666670       0.33333330       0.37500000 </v>
   <v>       0.66666670       0.33333330       0.87500000 </v>
   <v>       0.33333330       0.66666670       0.43750000 </v>
   <v>       0.00000000       0.00000000       0.00000000 </v>
  </varray>
 </structure>
 <calculation>
  <scstep>
   <time name="diag">   49.47   49.59</time>
   <time name="diis">  203.95  204.38</time>
   <time name="orth">   14.67   14.77</time>
   <time name="total">  268.26  268.92</time>
   <energy>
    <i name="alphaZ">   3190.68016764 </i>
    <i name="ewald"> -60407.11504458 </i>
    <i name="hartreedc"> -18772.71649318 </i>
    <i name="XCdc">   2353.27877775 </i>
    <i name="pawpsdc">  64052.30531756 </i>
    <i name="pawaedc"> -66922.40966197 </i>
    <i name="eentropy">     -0.01656769 </i>
    <i name="bandstr">   4289.04141018 </i>
    <i name="atom">  74067.99487448 </i>
    <i name="e_fr_energy">   1851.04278017 </i>
    <i name="e_wo_entrp">   1851.05934786 </i>
    <i name="e_0_energy">   1851.04830274 </i>
   </energy>
  </scstep>
  <scstep>
   <time name="diag">   49.84   49.92</time>
   <time name="diis">  204.14  204.58</time>
   <time name="orth">   14.69   14.71</time>
   <time name="total">  268.74  269.29</time>
   <energy>
    <i name="e_fr_energy">      3.85996273 </i>
    <i name="e_wo_entrp">      3.85559070 </i>
    <i name="e_0_energy">      3.85850539 </i>
   </energy>
  </scstep>
  <scstep>
   <time name="diag">   49.58   49.66</time>
   <time name="diis">  204.44  204.80</time>
   <time name="orth">   14.70   14.73</time>
   <time name="total">  268.80  269.26</time>
   <energy>
    <i name="e_fr_energy">   -150.87108858 </i>
    <i name="e_wo_entrp">   -150.88125029 </i>
    <i name="e_0_energy">   -150.87447582 </i>
   </energy>
  </scstep>
  <scstep>
   <time name="diag">   49.82   49.87</time>
   <time name="diis">  204.49  204.73</time>
   <time name="orth">   14.64   14.70</time>
   <time name="total">  269.03  269.38</time>
   <energy>
    <i name="e_fr_energy">   -328.07824252 </i>
    <i name="e_wo_entrp">   -328.05270597 </i>
    <i name="e_0_energy">   -328.06973034 </i>
   </energy>
  </scstep>
  <scstep>
   <time name="diag">   50.21   50.26</time>
   <time name="diis">  204.18  204.55</time>
   <time name="orth">   14.73   14.77</time>
   <time name="total">  269.20  269.65</time>
   <energy>
    <i name="e_fr_energy">   -377.03081992 </i>
    <i name="e_wo_entrp">   -377.00774462 </i>
    <i name="e_0_energy">   -377.02312815 </i>
   </energy>
  </scstep>
  <scstep>
   <time name="diag">   49.80   49.85</time>
   <time name="diis">  204.52  204.78</time>
   <time name="orth">   14.67   14.71</time>
   <time name="total">  269.08  269.42</time>
   <energy>
    <i name="e_fr_energy">   -404.23508397 </i>
    <i name="e_wo_entrp">   -404.21904546 </i>
    <i name="e_0_energy">   -404.22973780 </i>
   </energy>
  </scstep>
  <scstep>
   <time name="diag">   50.07   50.22</time>
   <time name="diis">  204.68  204.94</time>
   <time name="orth">   14.68   14.71</time>
   <time name="total">  269.51  269.94</time>
   <energy>
    <i name="e_fr_energy">   -418.62975235 </i>
    <i name="e_wo_entrp">   -418.62387409 </i>
    <i name="e_0_energy">   -418.62779293 </i>
   </energy>
  </scstep>
  <scstep>
   <time name="diag">   49.75   49.81</time>
   <time name="diis">  204.21  204.65</time>
   <time name="orth">   14.62   14.63</time>
   <time name="total">  268.67  269.16</time>
   <energy>
    <i name="e_fr_energy">   -429.87727380 </i>
    <i name="e_wo_entrp">   -429.87541302 </i>
    <i name="e_0_energy">   -429.87665354 </i>
   </energy>
  </scstep>
  <scstep>
   <time name="diag">   49.78   49.89</time>
   <time name="diis">  631.10  632.10</time>
   <time name="orth">   14.68   14.70</time>
   <time name="total">  695.63  696.76</time>
   <energy>
    <i name="e_fr_energy">   -442.45423171 </i>
    <i name="e_wo_entrp">   -442.45518024 </i>
    <i name="e_0_energy">   -442.45454789 </i>
   </energy>
  </scstep>
  <scstep>
   <time name="diag">   49.73   49.79</time>
   <time name="diis">  712.92  713.99</time>
   <time name="orth">   14.69   14.72</time>
   <time name="total">  777.42  778.57</time>
   <energy>
    <i name="e_fr_energy">   -456.07088682 </i>
    <i name="e_wo_entrp">   -456.07688090 </i>
    <i name="e_0_energy">   -456.07288484 </i>
   </energy>
  </scstep>
  <scstep>
   <time name="diag">   49.72   49.77</time>
   <time name="diis">  713.23  714.30</time>
   <time name="orth">   14.64   14.67</time>
   <time name="total">  777.66  778.81</time>
   <energy>
    <i name="e_fr_energy">   -461.78947009 </i>
    <i name="e_wo_entrp">   -461.79743999 </i>
    <i name="e_0_energy">   -461.79212672 </i>
   </energy>
  </scstep>
  <scstep>
   <time name="diag">   49.65   49.70</time>
   <time name="diis">  713.29  714.46</time>
   <time name="orth">   14.60   14.61</time>
   <time name="total">  789.74  790.98</time>
   <energy>
    <i name="e_fr_energy">   -465.51812731 </i>
    <i name="e_wo_entrp">   -465.52346557 </i>
    <i name="e_0_energy">   -465.51990673 </i>
   </energy>
  </scstep>
  <scstep>
   <time name="diag">   49.60   49.70</time>
   <time name="diis">  416.08  416.82</time>
   <time name="orth">   14.91   15.00</time>
   <time name="total">  492.82  493.75</time>
   <energy>
    <i name="e_fr_energy">   -471.20386693 </i>
    <i name="e_wo_entrp">   -471.20236887 </i>
    <i name="e_0_energy">   -471.20336758 </i>
   </energy>
  </scstep>
  <scstep>
   <time name="diag">   49.32   49.41</time>
   <time name="diis">  446.38  447.33</time>
   <time name="orth">   14.61   14.62</time>
   <time name="total">  522.62  523.69</time>
   <energy>
    <i name="e_fr_energy">   -562.31853698 </i>
    <i name="e_wo_entrp">   -562.32963468 </i>
    <i name="e_0_energy">   -562.32223621 </i>
   </energy>
  </scstep>
  <scstep>
   <time name="diag">   49.37   49.42</time>
   <time name="diis">  635.45  636.57</time>
   <time name="orth">   14.58   14.59</time>
   <time name="total">  711.70  712.88</time>
   <energy>
    <i name="e_fr_energy">  -1072.06880502 </i>
    <i name="e_wo_entrp">  -1072.04340077 </i>
    <i name="e_0_energy">  -1072.06033694 </i>
   </energy>
  </scstep>
  <scstep>
   <time name="diag">   49.56   49.65</time>
   <time name="diis">  486.62  487.50</time>
   <time name="orth">   14.92   15.02</time>
   <time name="total">  563.20  564.27</time>
   <energy>
    <i name="e_fr_energy">   -611.57756446 </i>
    <i name="e_wo_entrp">   -611.58057146 </i>
    <i name="e_0_energy">   -611.57856680 </i>
   </energy>
  </scstep>
  <scstep>
   <time name="diag">   49.45   49.52</time>
   <time name="diis">  455.34  456.18</time>
   <time name="orth">   14.61   14.63</time>
   <time name="total">  531.55  532.50</time>
   <energy>
    <i name="e_fr_energy">   -437.19349819 </i>
    <i name="e_wo_entrp">   -437.16030717 </i>
    <i name="e_0_energy">   -437.18243451 </i>
   </energy>
  </scstep>
  <scstep>
   <time name="diag">   49.29   49.40</time>
   <time name="diis">  417.75  418.47</time>
   <time name="orth">   14.90   14.90</time>
   <time name="total">  494.16  495.00</time>
   <energy>
    <i name="e_fr_energy">   -452.99353948 </i>
    <i name="e_wo_entrp">   -452.99694101 </i>
    <i name="e_0_energy">   -452.99467332 </i>
   </energy>
  </scstep>
  <scstep>
   <time name="diag">   49.34   49.43</time>
   <time name="diis">  422.57  423.36</time>
   <time name="orth">   14.64   14.67</time>
   <time name="total">  498.79  499.72</time>
   <energy>
    <i name="e_fr_energy">   -436.07634133 </i>
    <i name="e_wo_entrp">   -436.09591260 </i>
    <i name="e_0_energy">   -436.08286509 </i>
   </energy>
  </scstep>
  <scstep>
   <time name="diag">   49.26   49.39</time>
   <time name="diis">  423.58  424.25</time>
   <time name="orth">   14.57   14.58</time>
   <time name="total">  499.64  500.56</time>
   <energy>
    <i name="e_fr_energy">   -414.40309324 </i>
    <i name="e_wo_entrp">   -414.43039282 </i>
    <i name="e_0_energy">   -414.41219310 </i>
   </energy>
  </scstep>
  <scstep>
   <time name="diag">   49.24   49.29</time>
   <time name="diis">  420.10  420.91</time>
   <time name="orth">   14.65   14.69</time>
   <time name="total">  496.27  497.17</time>
   <energy>
    <i name="e_fr_energy">   -407.18688583 </i>
    <i name="e_wo_entrp">   -407.27112640 </i>
    <i name="e_0_energy">   -407.21496602 </i>
   </energy>
  </scstep>
  <scstep>
   <time name="diag">   49.30   49.37</time>
   <time name="diis">  442.13  443.67</time>
   <time name="orth">   14.58   14.59</time>
   <time name="total">  518.26  519.91</time>
   <energy>
    <i name="e_fr_energy">   -405.14045136 </i>
    <i name="e_wo_entrp">   -405.22086176 </i>
    <i name="e_0_energy">   -405.16725482 </i>
   </energy>
  </scstep>
  <scstep>
   <time name="diag">   49.14   49.21</time>
   <time name="diis">  648.59  649.68</time>
   <time name="orth">   14.58   14.59</time>
   <time name="total">  724.53  725.73</time>
   <energy>
    <i name="e_fr_energy">   -405.12305840 </i>
    <i name="e_wo_entrp">   -405.20928198 </i>
    <i name="e_0_energy">   -405.15179959 </i>
   </energy>
  </scstep>
  <scstep>
   <time name="diag">   49.15   49.19</time>
   <time name="diis">  464.79  465.53</time>
   <time name="orth">   14.57   14.58</time>
   <time name="total">  540.74  541.56</time>
   <energy>
    <i name="e_fr_energy">   -404.98925219 </i>
    <i name="e_wo_entrp">   -405.07830980 </i>
    <i name="e_0_energy">   -405.01893806 </i>
   </energy>
  </scstep>
  <scstep>
   <time name="diag">   49.24   49.31</time>
   <time name="diis">  459.03  459.97</time>
   <time name="orth">   14.60   14.62</time>
   <time name="total">  534.99  536.08</time>
   <energy>
    <i name="e_fr_energy">   -404.34759493 </i>
    <i name="e_wo_entrp">   -404.48244933 </i>
    <i name="e_0_energy">   -404.39254640 </i>
   </energy>
  </scstep>
  <scstep>
   <time name="diag">   49.24   49.34</time>
   <time name="diis">  446.77  447.97</time>
   <time name="orth">   14.56   14.62</time>
   <time name="total">  522.70  524.06</time>
   <energy>
    <i name="e_fr_energy">   -404.25058266 </i>
    <i name="e_wo_entrp">   -404.39578173 </i>
    <i name="e_0_energy">   -404.29898235 </i>
   </energy>
  </scstep>
  <scstep>
   <time name="diag">   49.58   49.77</time>
   <time name="diis">  473.50  474.41</time>
   <time name="orth">   14.57   14.58</time>
   <time name="total">  549.78  550.93</time>
   <energy>
    <i name="e_fr_energy">   -406.49215976 </i>
    <i name="e_wo_entrp">   -406.52762586 </i>
    <i name="e_0_energy">   -406.50398180 </i>
   </energy>
  </scstep>
  <scstep>
   <time name="diag">   49.12   49.20</time>
   <time name="diis">  470.31  471.46</time>
   <time name="orth">   14.58   14.61</time>
   <time name="total">  546.22  547.50</time>
   <energy>
    <i name="e_fr_energy">   -414.48240391 </i>
    <i name="e_wo_entrp">   -414.51598235 </i>
    <i name="e_0_energy">   -414.49359673 </i>
   </energy>
  </scstep>
  <scstep>
   <time name="diag">   49.18   49.25</time>
   <time name="diis">  435.64  436.63</time>
   <time name="orth">   14.58   14.59</time>
   <time name="total">  511.54  512.64</time>
   <energy>
    <i name="e_fr_energy">   -409.13902741 </i>
    <i name="e_wo_entrp">   -409.12100130 </i>
    <i name="e_0_energy">   -409.13301871 </i>
   </energy>
  </scstep>
  <scstep>
   <time name="diag">   49.12   49.20</time>
   <time name="diis">  458.85  459.93</time>
   <time name="orth">   14.64   14.68</time>
   <time name="total">  534.74  536.00</time>
   <energy>
    <i name="e_fr_energy">   -409.42818385 </i>
    <i name="e_wo_entrp">   -409.43212771 </i>
    <i name="e_0_energy">   -409.42949847 </i>
   </energy>
  </scstep>
  <scstep>
   <time name="diag">   49.20   49.33</time>
   <time name="diis">  481.04  482.24</time>
   <time name="orth">   14.60   14.65</time>
   <time name="total">  557.01  558.40</time>
   <energy>
    <i name="e_fr_energy">   -409.03223062 </i>
    <i name="e_wo_entrp">   -409.12507942 </i>
    <i name="e_0_energy">   -409.06318022 </i>
   </energy>
  </scstep>
  <scstep>
   <time name="diag">   49.71   49.84</time>
   <time name="diis">  513.95  515.21</time>
   <time name="orth">   14.60   14.63</time>
   <time name="total">  590.40  591.83</time>
   <energy>
    <i name="e_fr_energy">   -409.49250828 </i>
    <i name="e_wo_entrp">   -409.62471657 </i>
    <i name="e_0_energy">   -409.53657771 </i>
   </energy>
  </scstep>
  <scstep>
   <time name="diag">   49.41   49.49</time>
   <time name="diis">  503.12  504.32</time>
   <time name="orth">   14.64   14.73</time>
   <time name="total">  579.42  580.80</time>
   <energy>
    <i name="e_fr_energy">   -409.88446723 </i>
    <i name="e_wo_entrp">   -410.01000583 </i>
    <i name="e_0_energy">   -409.92631343 </i>
   </energy>
  </scstep>
  <scstep>
   <time name="diag">   49.39   49.49</time>
   <time name="diis">  430.80  431.76</time>
   <time name="orth">   14.65   14.70</time>
   <time name="total">  507.09  508.20</time>
   <energy>
    <i name="e_fr_energy">   -410.70004173 </i>
    <i name="e_wo_entrp">   -410.81619397 </i>
    <i name="e_0_energy">   -410.73875914 </i>
   </energy>
  </scstep>
  <scstep>
   <time name="diag">   49.35   49.46</time>
   <time name="diis">  442.99  443.95</time>
   <time name="orth">   14.60   14.61</time>
   <time name="total">  519.15  520.26</time>
   <energy>
    <i name="e_fr_energy">   -411.12402704 </i>
    <i name="e_wo_entrp">   -411.20469259 </i>
    <i name="e_0_energy">   -411.15091556 </i>
   </energy>
  </scstep>
  <scstep>
   <time name="diag">   49.47   49.63</time>
   <time name="diis">  453.17  454.29</time>
   <time name="orth">   14.68   14.72</time>
   <time name="total">  529.56  530.87</time>
   <energy>
    <i name="e_fr_energy">   -411.20862975 </i>
    <i name="e_wo_entrp">   -411.30509725 </i>
    <i name="e_0_energy">   -411.24078559 </i>
   </energy>
  </scstep>
  <scstep>
   <time name="diag">   49.55   49.63</time>
   <time name="diis">  496.78  497.84</time>
   <time name="orth">   14.64   14.67</time>
   <time name="total">  573.18  574.37</time>
   <energy>
    <i name="e_fr_energy">   -410.90740185 </i>
    <i name="e_wo_entrp">   -411.04236489 </i>
    <i name="e_0_energy">   -410.95238953 </i>
   </energy>
  </scstep>
  <scstep>
   <time name="diag">   49.51   49.65</time>
   <time name="diis">  538.11  539.28</time>
   <time name="orth">   14.60   14.61</time>
   <time name="total">  614.39  615.74</time>
   <energy>
    <i name="e_fr_energy">   -410.70834067 </i>
    <i name="e_wo_entrp">   -410.86741493 </i>
    <i name="e_0_energy">   -410.76136542 </i>
   </energy>
  </scstep>
  <scstep>
   <time name="diag">   49.54   49.64</time>
   <time name="diis">  545.59  546.92</time>
   <time name="orth">   14.64   14.67</time>
   <time name="total">  621.87  623.37</time>
   <energy>
    <i name="e_fr_energy">   -410.51662938 </i>
    <i name="e_wo_entrp">   -410.68158819 </i>
    <i name="e_0_energy">   -410.57161565 </i>
   </energy>
  </scstep>
  <scstep>
   <time name="diag">   49.54   49.62</time>
   <time name="diis">  535.41  536.51</time>
   <time name="orth">   14.59   14.64</time>
   <time name="total">  611.64  612.87</time>
   <energy>
    <i name="e_fr_energy">   -410.26488205 </i>
    <i name="e_wo_entrp">   -410.43065273 </i>
    <i name="e_0_energy">   -410.32013895 </i>
   </energy>
  </scstep>
  <scstep>
   <time name="diag">   49.52   49.62</time>
   <time name="diis">  534.44  535.56</time>
   <time name="orth">   14.58   14.60</time>
   <time name="total">  610.64  611.88</time>
   <energy>
    <i name="e_fr_energy">   -410.11312588 </i>
    <i name="e_wo_entrp">   -410.26866112 </i>
    <i name="e_0_energy">   -410.16497096 </i>
   </energy>
  </scstep>
  <scstep>
   <time name="diag">   49.49   49.60</time>
   <time name="diis">  581.01  582.29</time>
   <time name="orth">   14.86   14.96</time>
   <time name="total">  657.46  658.97</time>
   <energy>
    <i name="e_fr_energy">   -410.05650570 </i>
    <i name="e_wo_entrp">   -410.20102165 </i>
    <i name="e_0_energy">   -410.10467769 </i>
   </energy>
  </scstep>
  <scstep>
   <time name="diag">   49.60   49.80</time>
   <time name="diis">  526.11  527.08</time>
   <time name="orth">   14.67   14.68</time>
   <time name="total">  602.59  603.78</time>
   <energy>
    <i name="e_fr_energy">   -410.02295291 </i>
    <i name="e_wo_entrp">   -410.15910971 </i>
    <i name="e_0_energy">   -410.06833851 </i>
   </energy>
  </scstep>
  <scstep>
   <time name="diag">   49.57   49.70</time>
   <time name="diis">  516.42  517.29</time>
   <time name="orth">   14.67   14.70</time>
   <time name="total">  592.85  593.89</time>
   <energy>
    <i name="e_fr_energy">   -409.95238983 </i>
    <i name="e_wo_entrp">   -410.07169221 </i>
    <i name="e_0_energy">   -409.99215729 </i>
   </energy>
  </scstep>
  <scstep>
   <time name="diag">   49.70   49.85</time>
   <time name="diis">  510.45  511.42</time>
   <time name="orth">   14.66   14.67</time>
   <time name="total">  587.06  588.22</time>
   <energy>
    <i name="e_fr_energy">   -409.91641289 </i>
    <i name="e_wo_entrp">   -410.02989450 </i>
    <i name="e_0_energy">   -409.95424010 </i>
   </energy>
  </scstep>
  <scstep>
   <time name="diag">   49.42   49.47</time>
   <time name="diis">  542.35  543.26</time>
   <time name="orth">   14.64   14.65</time>
   <time name="total">  618.65  619.63</time>
   <energy>
    <i name="e_fr_energy">   -409.90284160 </i>
    <i name="e_wo_entrp">   -410.01806635 </i>
    <i name="e_0_energy">   -409.94124985 </i>
   </energy>
  </scstep>
  <scstep>
   <time name="diag">   49.41   49.52</time>
   <time name="diis">  520.76  521.69</time>
   <time name="orth">   14.66   14.68</time>
   <time name="total">  597.04  598.12</time>
   <energy>
    <i name="e_fr_energy">   -409.89613525 </i>
    <i name="e_wo_entrp">   -410.01643497 </i>
    <i name="e_0_energy">   -409.93623515 </i>
   </energy>
  </scstep>
  <scstep>
   <time name="diag">   49.70   49.85</time>
   <time name="diis">  509.72  511.39</time>
   <time name="orth">   21.59   21.65</time>
   <time name="total">  594.14  596.50</time>
   <energy>
    <i name="e_fr_energy">   -409.89575164 </i>
    <i name="e_wo_entrp">   -410.01778706 </i>
    <i name="e_0_energy">   -409.93643011 </i>
   </energy>
  </scstep>
  <scstep>
   <time name="diag">   52.96   53.13</time>
   <time name="diis">  512.88  513.64</time>
   <time name="orth">   14.61   14.66</time>
   <time name="total">  592.74  593.73</time>
   <energy>
    <i name="e_fr_energy">   -409.89605928 </i>
    <i name="e_wo_entrp">   -410.02256881 </i>
    <i name="e_0_energy">   -409.93822913 </i>
   </energy>
  </scstep>
  <scstep>
   <time name="diag">   49.31   49.44</time>
   <time name="diis">  292.95  293.55</time>
   <time name="orth">   14.59   14.62</time>
   <time name="total">  369.06  369.83</time>
   <energy>
    <i name="e_fr_energy">   -409.89627712 </i>
    <i name="e_wo_entrp">   -410.02335238 </i>
    <i name="e_0_energy">   -409.93863554 </i>
   </energy>
  </scstep>
  <scstep>
   <time name="diag">   49.37   49.47</time>
   <time name="diis">  280.60  281.16</time>
   <time name="orth">   14.57   14.61</time>
   <time name="total">  344.70  345.40</time>
   <energy>
    <i name="alphaZ">   3190.68016764 </i>
    <i name="ewald"> -60407.11504458 </i>
    <i name="hartreedc"> -17471.71651774 </i>
    <i name="XCdc">   2283.02795540 </i>
    <i name="pawpsdc">  77878.99259425 </i>
    <i name="pawaedc"> -80720.97331529 </i>
    <i name="eentropy">      0.12712686 </i>
    <i name="bandstr">    769.08580221 </i>
    <i name="atom">  74067.99487448 </i>
    <i name="e_fr_energy">   -409.89635678 </i>
    <i name="e_wo_entrp">   -410.02348365 </i>
    <i name="e_0_energy">   -409.93873241 </i>
   </energy>
  </scstep>
  <structure>
   <crystal>
    <varray name="basis" >
     <v>       5.07419800       0.00000000       0.00000000 </v>
     <v>      -2.53709900       4.39438500       0.00000000 </v>
     <v>       0.00000000       0.00000000      33.14452400 </v>
    </varray>
    <i name="volume">    739.05591928 </i>
    <varray name="rec_basis" >
     <v>       0.19707548       0.11378156       0.00000000 </v>
     <v>       0.00000000       0.22756313       0.00000000 </v>
     <v>       0.00000000       0.00000000       0.03017090 </v>
    </varray>
   </crystal>
   <varray name="positions" >
    <v>       0.33333330       0.66666670       0.93750000 </v>
    <v>       0.33333330       0.66666670       0.12500000 </v>
    <v>       0.16666670       0.33333330       0.75000000 </v>
    <v>       0.50000000       0.00000000       0.31250000 </v>
    <v>       0.50000000       0.50000000       0.81250000 </v>
    <v>       0.50000000       0.50000000       0.31250000 </v>
    <v>       0.66666670       0.83333330       0.75000000 </v>
    <v>       0.66666670       0.83333330       0.25000000 </v>
    <v>       0.16666670       0.83333330       0.75000000 </v>
    <v>       0.16666670       0.83333330       0.25000000 </v>
    <v>       0.00000000       0.50000000       0.31250000 </v>
    <v>       0.16666670       0.33333330       0.25000000 </v>
    <v>       0.00000000       0.50000000       0.68750000 </v>
    <v>       0.00000000       0.50000000       0.18750000 </v>
    <v>       0.50000000       0.00000000       0.68750000 </v>
    <v>       0.50000000       0.00000000       0.18750000 </v>
    <v>       0.50000000       0.50000000       0.68750000 </v>
    <v>       0.50000000       0.50000000       0.18750000 </v>
    <v>       0.50000000       0.00000000       0.81250000 </v>
    <v>       0.83333330       0.66666670       0.12500000 </v>
    <v>       0.00000000       0.50000000       0.81250000 </v>
    <v>       0.16666670       0.33333330       0.37500000 </v>
    <v>       0.16666670       0.33333330       0.87500000 </v>
    <v>       0.16666670       0.83333330       0.37500000 </v>
    <v>       0.16666670       0.83333330       0.87500000 </v>
    <v>       0.66666670       0.83333330       0.37500000 </v>
    <v>       0.66666670       0.83333330       0.87500000 </v>
    <v>       0.33333330       0.16666670       0.43750000 </v>
    <v>       0.33333330       0.16666670       0.93750000 </v>
    <v>       0.83333330       0.16666670       0.43750000 </v>
    <v>       0.83333330       0.16666670       0.93750000 </v>
    <v>       0.83333330       0.66666670       0.43750000 </v>
    <v>       0.83333330       0.66666670       0.93750000 </v>
    <v>       0.83333330       0.66666670       0.62500000 </v>
    <v>       0.50000000       0.50000000       0.00000000 </v>
    <v>       0.50000000       0.50000000       0.50000000 </v>
    <v>       0.50000000       0.00000000       0.00000000 </v>
    <v>       0.50000000       0.00000000       0.50000000 </v>
    <v>       0.00000000       0.50000000       0.00000000 </v>
    <v>       0.00000000       0.50000000       0.50000000 </v>
    <v>       0.16666670       0.33333330       0.06250000 </v>
    <v>       0.16666670       0.33333330       0.56250000 </v>
    <v>       0.16666670       0.83333330       0.06250000 </v>
    <v>       0.16666670       0.83333330       0.56250000 </v>
    <v>       0.66666670       0.83333330       0.06250000 </v>
    <v>       0.66666670       0.83333330       0.56250000 </v>
    <v>       0.33333330       0.16666670       0.12500000 </v>
    <v>       0.33333330       0.16666670       0.62500000 </v>
    <v>       0.83333330       0.16666670       0.12500000 </v>
    <v>       0.83333330       0.16666670       0.62500000 </v>
    <v>       0.00000000       0.00000000       0.50000000 </v>
    <v>       0.66666670       0.33333330       0.06250000 </v>
    <v>       0.66666670       0.33333330       0.56250000 </v>
    <v>       0.33333330       0.66666670       0.62500000 </v>
    <v>       0.00000000       0.00000000       0.18750000 </v>
    <v>       0.00000000       0.00000000       0.68750000 </v>
    <v>       0.66666670       0.33333330       0.25000000 </v>
    <v>       0.66666670       0.33333330       0.75000000 </v>
    <v>       0.00000000       0.00000000       0.31250000 </v>
    <v>       0.00000000       0.00000000       0.81250000 </v>
    <v>       0.66666670       0.33333330       0.37500000 </v>
    <v>       0.66666670       0.33333330       0.87500000 </v>
    <v>       0.33333330       0.66666670       0.43750000 </v>
    <v>       0.00000000       0.00000000       0.00000000 </v>
   </varray>
  </structure>
  <varray name="forces" >
   <v>      -0.00000000       0.00000000       0.08283311 </v>
   <v>      -0.00000000       0.00000000      -0.08283311 </v>
   <v>      -0.00000000       0.71337125      -0.16878216 </v>
   <v>       0.00000000      -0.71337125       0.16878216 </v>
   <v>      -0.57636650       0.33276540      -0.07351565 </v>
   <v>      -0.61779753       0.35668562       0.16878216 </v>
   <v>      -0.61779753      -0.35668562      -0.16878216 </v>
   <v>      -0.57636650      -0.33276540       0.07351565 </v>
   <v>       0.61779753      -0.35668562      -0.16878216 </v>
   <v>       0.57636650      -0.33276540       0.07351565 </v>
   <v>       0.61779753       0.35668562       0.16878216 </v>
   <v>       0.00000000       0.66553080       0.07351565 </v>
   <v>      -0.00143383      -0.00082782      -0.16726248 </v>
   <v>      -0.06676562      -0.03854715      -0.03003032 </v>
   <v>      -0.00000000       0.00165564      -0.16726248 </v>
   <v>      -0.00000000       0.07709430      -0.03003032 </v>
   <v>       0.00143383      -0.00082782      -0.16726248 </v>
   <v>       0.06676562      -0.03854715      -0.03003032 </v>
   <v>      -0.00000000      -0.66553080      -0.07351565 </v>
   <v>      -0.00000000      -0.03129009       0.01572747 </v>
   <v>       0.57636650       0.33276540      -0.07351565 </v>
   <v>      -0.00000000      -0.00165564       0.16726248 </v>
   <v>      -0.00000000      -0.07709430       0.03003032 </v>
   <v>      -0.00143383       0.00082782       0.16726248 </v>
   <v>      -0.06676562       0.03854715       0.03003032 </v>
   <v>       0.00143383       0.00082782       0.16726248 </v>
   <v>       0.06676562       0.03854715       0.03003032 </v>
   <v>      -0.06468476      -0.03734577       0.11175877 </v>
   <v>      -0.02709801      -0.01564505      -0.01572747 </v>
   <v>       0.06468476      -0.03734577       0.11175877 </v>
   <v>       0.02709801      -0.01564505      -0.01572747 </v>
   <v>      -0.00000000       0.07469153       0.11175877 </v>
   <v>      -0.00000000       0.03129009      -0.01572747 </v>
   <v>      -0.00000000      -0.07469153      -0.11175877 </v>
   <v>       0.02339200      -0.01350538      -0.04129976 </v>
   <v>       0.00866747      -0.00500417       0.01755971 </v>
   <v>      -0.00000000       0.02701076      -0.04129976 </v>
   <v>      -0.00000000       0.01000833       0.01755971 </v>
   <v>      -0.02339200      -0.01350538      -0.04129976 </v>
   <v>      -0.00866747      -0.00500417       0.01755971 </v>
   <v>      -0.00000000      -0.02701076       0.04129976 </v>
   <v>      -0.00000000      -0.01000833      -0.01755971 </v>
   <v>      -0.02339200       0.01350538       0.04129976 </v>
   <v>      -0.00866747       0.00500417      -0.01755971 </v>
   <v>       0.02339200       0.01350538       0.04129976 </v>
   <v>       0.00866747       0.00500417      -0.01755971 </v>
   <v>       0.02709801       0.01564505       0.01572747 </v>
   <v>       0.06468476       0.03734577      -0.11175877 </v>
   <v>      -0.02709801       0.01564505       0.01572747 </v>
   <v>      -0.06468476       0.03734577      -0.11175877 </v>
   <v>      -0.00000000       0.00000000      -0.07807082 </v>
   <v>      -0.00000000       0.00000000      -0.42270297 </v>
   <v>      -0.00000000       0.00000000       0.07807082 </v>
   <v>      -0.00000000       0.00000000       0.20951009 </v>
   <v>      -0.00000000       0.00000000       0.13051116 </v>
   <v>      -0.00000000       0.00000000       0.59934639 </v>
   <v>      -0.00000000       0.00000000      -0.25740829 </v>
   <v>      -0.00000000       0.00000000       0.72053021 </v>
   <v>      -0.00000000       0.00000000      -0.72053021 </v>
   <v>      -0.00000000       0.00000000       0.25740829 </v>
   <v>      -0.00000000       0.00000000      -0.59934639 </v>
   <v>      -0.00000000       0.00000000      -0.13051116 </v>
   <v>      -0.00000000       0.00000000      -0.20951009 </v>
   <v>      -0.00000000       0.00000000       0.42270297 </v>
  </varray>
  <varray name="stress" >
   <v>      16.86695605      -0.00000000      -0.00000000 </v>
   <v>      -0.00000000      16.86696087      -0.00000000 </v>
   <v>       0.00000000       0.00000000      15.67350122 </v>
  </varray>
  <energy>
   <i name="e_fr_energy">   -409.89635678 </i>
   <i name="e_wo_entrp">   -409.93873241 </i>
   <i name="e_0_energy">      0.12712686 </i>
  </energy>
  <time name="totalsc">28260.1228316.74</time>
 </calculation>
 <calculation>
  <scstep>
   <time name="diag">   49.60   49.70</time>
   <time name="diis">  419.20  420.10</time>
   <time name="orth">   15.27   15.30</time>
   <time name="total">  496.26  497.31</time>
   <energy>
    <i name="alphaZ">   3136.48795541 </i>
    <i name="ewald"> -60081.43928995 </i>
    <i name="hartreedc"> -17355.25621816 </i>
    <i name="XCdc">   2265.59978480 </i>
    <i name="pawpsdc">  77880.12419908 </i>
    <i name="pawaedc"> -80722.11229283 </i>
    <i name="eentropy">      0.10430858 </i>
    <i name="bandstr">    392.49239487 </i>
    <i name="atom">  74067.99487448 </i>
    <i name="e_fr_energy">   -416.00428371 </i>
    <i name="e_wo_entrp">   -416.10859229 </i>
    <i name="e_0_energy">   -416.03905324 </i>
   </energy>
  </scstep>
  <scstep>
   <time name="diag">   50.12   50.23</time>
   <time name="diis">  446.01  447.00</time>
   <time name="orth">   14.56   14.58</time>
   <time name="total">  522.95  524.08</time>
   <energy>
    <i name="e_fr_energy">   -428.10906026 </i>
    <i name="e_wo_entrp">   -428.12944881 </i>
    <i name="e_0_energy">   -428.11585644 </i>
   </energy>
  </scstep>
  <scstep>
   <time name="diag">   50.07   50.14</time>
   <time name="diis">  437.90  438.93</time>
   <time name="orth">   14.58   14.61</time>
   <time name="total">  515.20  516.36</time>
   <energy>
    <i name="e_fr_energy">   -503.36332742 </i>
    <i name="e_wo_entrp">   -503.37291616 </i>
    <i name="e_0_energy">   -503.36652366 </i>
   </energy>
  </scstep>
  <scstep>
   <time name="diag">   49.19   49.29</time>
   <time name="diis">  484.77  485.69</time>
   <time name="orth">   15.17   15.18</time>
   <time name="total">  561.39  562.44</time>
   <energy>
    <i name="e_fr_energy">   -414.30741168 </i>
    <i name="e_wo_entrp">   -414.43616626 </i>
    <i name="e_0_energy">   -414.35032987 </i>
   </energy>
  </scstep>
  <scstep>
   <time name="diag">   50.44   50.53</time>
   <time name="diis">  439.79  440.65</time>
   <time name="orth">   14.60   14.62</time>
   <time name="total">  517.03  518.02</time>
   <energy>
    <i name="e_fr_energy">   -412.94046561 </i>
    <i name="e_wo_entrp">   -412.90162500 </i>
    <i name="e_0_energy">   -412.92751874 </i>
   </energy>
  </scstep>
  <scstep>
   <time name="diag">   49.96   50.03</time>
   <time name="diis">  424.09  424.87</time>
   <time name="orth">   14.58   14.60</time>
   <time name="total">  500.79  501.69</time>
   <energy>
    <i name="e_fr_energy">   -410.63992599 </i>
    <i name="e_wo_entrp">   -410.75928590 </i>
    <i name="e_0_energy">   -410.67971263 </i>
   </energy>
  </scstep>
  <scstep>
   <time name="diag">   49.94   50.03</time>
   <time name="diis">  442.72  443.71</time>
   <time name="orth">   15.09   15.17</time>
   <time name="total">  519.93  521.14</time>
   <energy>
    <i name="e_fr_energy">   -410.43867113 </i>
    <i name="e_wo_entrp">   -410.54507955 </i>
    <i name="e_0_energy">   -410.47414060 </i>
   </energy>
  </scstep>
  <scstep>
   <time name="diag">   49.94   50.07</time>
   <time name="diis">  448.23  449.14</time>
   <time name="orth">   14.57   14.59</time>
   <time name="total">  524.94  526.00</time>
   <energy>
    <i name="e_fr_energy">   -410.20200699 </i>
    <i name="e_wo_entrp">   -410.31557326 </i>
    <i name="e_0_energy">   -410.23986241 </i>
   </energy>
  </scstep>
  <scstep>
   <time name="diag">   49.96   50.06</time>
   <time name="diis">  480.50  481.55</time>
   <time name="orth">   14.57   14.62</time>
   <time name="total">  557.22  558.44</time>
   <energy>
    <i name="e_fr_energy">   -410.21253965 </i>
    <i name="e_wo_entrp">   -410.33592563 </i>
    <i name="e_0_energy">   -410.25366831 </i>
   </energy>
  </scstep>
  <scstep>
   <time name="diag">   49.88   50.02</time>
   <time name="diis">  467.21  468.12</time>
   <time name="orth">   14.61   14.64</time>
   <time name="total">  543.87  544.98</time>
   <energy>
    <i name="e_fr_energy">   -410.19789371 </i>
    <i name="e_wo_entrp">   -410.32087674 </i>
    <i name="e_0_energy">   -410.23888805 </i>
   </energy>
  </scstep>
  <scstep>
   <time name="diag">   49.96   50.05</time>
   <time name="diis">  471.70  472.86</time>
   <time name="orth">   14.59   14.60</time>
   <time name="total">  548.44  549.72</time>
   <energy>
    <i name="e_fr_energy">   -410.18589884 </i>
    <i name="e_wo_entrp">   -410.30621690 </i>
    <i name="e_0_energy">   -410.22600486 </i>
   </energy>
  </scstep>
  <scstep>
   <time name="diag">   49.90   50.06</time>
   <time name="diis">  465.67  466.68</time>
   <time name="orth">   15.21   15.23</time>
   <time name="total">  542.96  544.19</time>
   <energy>
    <i name="e_fr_energy">   -410.18913913 </i>
    <i name="e_wo_entrp">   -410.31025180 </i>
    <i name="e_0_energy">   -410.22951002 </i>
   </energy>
  </scstep>
  <scstep>
   <time name="diag">   49.86   49.93</time>
   <time name="diis">  461.53  462.40</time>
   <time name="orth">   14.57   14.59</time>
   <time name="total">  538.57  539.55</time>
   <energy>
    <i name="e_fr_energy">   -410.18939635 </i>
    <i name="e_wo_entrp">   -410.30871762 </i>
    <i name="e_0_energy">   -410.22917010 </i>
   </energy>
  </scstep>
  <scstep>
   <time name="diag">   49.27   49.36</time>
   <time name="diis">  469.65  470.49</time>
   <time name="orth">   14.58   14.59</time>
   <time name="total">  545.85  546.83</time>
   <energy>
    <i name="e_fr_energy">   -410.18658470 </i>
    <i name="e_wo_entrp">   -410.30415867 </i>
    <i name="e_0_energy">   -410.22577603 </i>
   </energy>
  </scstep>
  <scstep>
   <time name="diag">   49.39   49.49</time>
   <time name="diis">  456.23  458.29</time>
   <time name="orth">   14.86   14.88</time>
   <time name="total">  532.65  534.98</time>
   <energy>
    <i name="e_fr_energy">   -410.18357680 </i>
    <i name="e_wo_entrp">   -410.30109965 </i>
    <i name="e_0_energy">   -410.22275108 </i>
   </energy>
  </scstep>
  <scstep>
   <time name="diag">   49.70   49.97</time>
   <time name="diis">  447.71  448.99</time>
   <time name="orth">   15.17   15.22</time>
   <time name="total">  524.79  526.39</time>
   <energy>
    <i name="e_fr_energy">   -410.18221720 </i>
    <i name="e_wo_entrp">   -410.30033324 </i>
    <i name="e_0_energy">   -410.22158921 </i>
   </energy>
  </scstep>
  <scstep>
   <time name="diag">   49.82   49.93</time>
   <time name="diis">  450.86  452.21</time>
   <time name="orth">   14.61   14.63</time>
   <time name="total">  527.42  528.96</time>
   <energy>
    <i name="e_fr_energy">   -410.18095908 </i>
    <i name="e_wo_entrp">   -410.29879613 </i>
    <i name="e_0_energy">   -410.22023810 </i>
   </energy>
  </scstep>
  <scstep>
   <time name="diag">   49.84   49.96</time>
   <time name="diis">  278.39  279.49</time>
   <time name="orth">   14.57   14.58</time>
   <time name="total">  342.97  344.20</time>
   <energy>
    <i name="alphaZ">   3136.48795541 </i>
    <i name="ewald"> -60081.43928995 </i>
    <i name="hartreedc"> -17608.29259603 </i>
    <i name="XCdc">   2279.37263090 </i>
    <i name="pawpsdc">  77091.13338129 </i>
    <i name="pawaedc"> -79934.91834371 </i>
    <i name="eentropy">      0.11794320 </i>
    <i name="bandstr">    639.36255134 </i>
    <i name="atom">  74067.99487448 </i>
    <i name="e_fr_energy">   -410.18089306 </i>
    <i name="e_wo_entrp">   -410.29883626 </i>
    <i name="e_0_energy">   -410.22020746 </i>
   </energy>
  </scstep>
  <structure>
   <crystal>
    <varray name="basis" >
     <v>       5.10395726      -0.00000000      -0.00000000 </v>
     <v>      -2.55197863       4.42015728      -0.00000000 </v>
     <v>       0.00000000       0.00000000      33.32515644 </v>
    </varray>
    <i name="volume">    751.82532117 </i>
    <varray name="rec_basis" >
     <v>       0.19592641       0.11311815       0.00000000 </v>
     <v>       0.00000000       0.22623629       0.00000000 </v>
     <v>       0.00000000       0.00000000       0.03000736 </v>
    </varray>
   </crystal>
   <varray name="positions" >
    <v>       0.33333330       0.66666670       0.93762057 </v>
    <v>       0.33333330       0.66666670       0.12487943 </v>
    <v>       0.17058248       0.34116487       0.74975433 </v>
    <v>       0.49608422      -0.00783157       0.31274567 </v>
    <v>       0.49634682       0.50365318       0.81239300 </v>
    <v>       0.49608422       0.50391578       0.31274567 </v>
    <v>       0.65883513       0.82941752       0.74975433 </v>
    <v>       0.65936034       0.82968012       0.25010700 </v>
    <v>       0.17058248       0.82941752       0.74975433 </v>
    <v>       0.17031988       0.82968012       0.25010700 </v>
    <v>       0.00783157       0.50391578       0.31274567 </v>
    <v>       0.17031988       0.34063966       0.25010700 </v>
    <v>      -0.00001818       0.49999091       0.68725655 </v>
    <v>      -0.00084636       0.49957682       0.18745629 </v>
    <v>       0.50000909       0.00001818       0.68725655 </v>
    <v>       0.50042318       0.00084636       0.18745629 </v>
    <v>       0.50000909       0.49999091       0.68725655 </v>
    <v>       0.50042318       0.49957682       0.18745629 </v>
    <v>       0.49634682      -0.00730636       0.81239300 </v>
    <v>       0.83316154       0.66632319       0.12502289 </v>
    <v>       0.00730636       0.50365318       0.81239300 </v>
    <v>       0.16665761       0.33331512       0.37524345 </v>
    <v>       0.16624352       0.33248694       0.87504371 </v>
    <v>       0.16665761       0.83334239       0.37524345 </v>
    <v>       0.16624352       0.83375648       0.87504371 </v>
    <v>       0.66668488       0.83334239       0.37524345 </v>
    <v>       0.66751306       0.83375648       0.87504371 </v>
    <v>       0.33251332       0.16625671       0.43766267 </v>
    <v>       0.33298979       0.16649494       0.93747711 </v>
    <v>       0.83374329       0.16625671       0.43766267 </v>
    <v>       0.83350506       0.16649494       0.93747711 </v>
    <v>       0.83374329       0.66748668       0.43766267 </v>
    <v>       0.83350506       0.66701021       0.93747711 </v>
    <v>       0.83292331       0.66584672       0.62483733 </v>
    <v>       0.50014827       0.49985173      -0.00006011 </v>
    <v>       0.50005494       0.49994506       0.50002556 </v>
    <v>       0.50014827       0.00029653      -0.00006011 </v>
    <v>       0.50005494       0.00010987       0.50002556 </v>
    <v>      -0.00029653       0.49985173      -0.00006011 </v>
    <v>      -0.00010987       0.49994506       0.50002556 </v>
    <v>       0.16651843       0.33303677       0.06256011 </v>
    <v>       0.16661176       0.33322343       0.56247444 </v>
    <v>       0.16651843       0.83348157       0.06256011 </v>
    <v>       0.16661176       0.83338824       0.56247444 </v>
    <v>       0.66696323       0.83348157       0.06256011 </v>
    <v>       0.66677657       0.83338824       0.56247444 </v>
    <v>       0.33367681       0.16683846       0.12502289 </v>
    <v>       0.33415328       0.16707669       0.62483733 </v>
    <v>       0.83316154       0.16683846       0.12502289 </v>
    <v>       0.83292331       0.16707669       0.62483733 </v>
    <v>      -0.00000000       0.00000000       0.49988637 </v>
    <v>       0.66666670       0.33333330       0.06188475 </v>
    <v>       0.66666670       0.33333330       0.56261363 </v>
    <v>       0.33333330       0.66666670       0.62530495 </v>
    <v>      -0.00000000       0.00000000       0.18768996 </v>
    <v>      -0.00000000       0.00000000       0.68837236 </v>
    <v>       0.66666670       0.33333330       0.24962534 </v>
    <v>       0.66666670       0.33333330       0.75104875 </v>
    <v>      -0.00000000       0.00000000       0.31145125 </v>
    <v>      -0.00000000       0.00000000       0.81287466 </v>
    <v>       0.66666670       0.33333330       0.37412764 </v>
    <v>       0.66666670       0.33333330       0.87481004 </v>
    <v>       0.33333330       0.66666670       0.43719505 </v>
    <v>      -0.00000000       0.00000000       0.00061525 </v>
   </varray>
  </structure>
  <varray name="forces" >
   <v>      -0.00000000      -0.00000000       0.04450012 </v>
   <v>       0.00000000      -0.00000000      -0.04450012 </v>
   <v>       0.00000000       0.15528562      -0.10005419 </v>
   <v>       0.00000000      -0.15528562       0.10005419 </v>
   <v>      -0.15445371       0.08917391       0.02106507 </v>
   <v>      -0.13448127       0.07764281       0.10005419 </v>
   <v>      -0.13448127      -0.07764281      -0.10005419 </v>
   <v>      -0.15445371      -0.08917391      -0.02106507 </v>
   <v>       0.13448127      -0.07764281      -0.10005419 </v>
   <v>       0.15445371      -0.08917391      -0.02106507 </v>
   <v>       0.13448127       0.07764281       0.10005419 </v>
   <v>       0.00000000       0.17834781      -0.02106507 </v>
   <v>      -0.06330613      -0.03654982      -0.07017589 </v>
   <v>      -0.02950320      -0.01703368      -0.03618176 </v>
   <v>       0.00000000       0.07309963      -0.07017589 </v>
   <v>      -0.00000000       0.03406737      -0.03618176 </v>
   <v>       0.06330613      -0.03654982      -0.07017589 </v>
   <v>       0.02950320      -0.01703368      -0.03618176 </v>
   <v>      -0.00000000      -0.17834781       0.02106507 </v>
   <v>       0.00000000      -0.00803054       0.00426969 </v>
   <v>       0.15445371       0.08917391       0.02106507 </v>
   <v>      -0.00000000      -0.07309963       0.07017589 </v>
   <v>       0.00000000      -0.03406737       0.03618176 </v>
   <v>      -0.06330613       0.03654982       0.07017589 </v>
   <v>      -0.02950320       0.01703368       0.03618176 </v>
   <v>       0.06330613       0.03654982       0.07017589 </v>
   <v>       0.02950320       0.01703368       0.03618176 </v>
   <v>       0.02190883       0.01264907       0.01879834 </v>
   <v>      -0.00695465      -0.00401527      -0.00426969 </v>
   <v>      -0.02190883       0.01264907       0.01879834 </v>
   <v>       0.00695465      -0.00401527      -0.00426969 </v>
   <v>      -0.00000000      -0.02529814       0.01879834 </v>
   <v>      -0.00000000       0.00803054      -0.00426969 </v>
   <v>       0.00000000       0.02529814      -0.01879834 </v>
   <v>      -0.00480133       0.00277205      -0.04150948 </v>
   <v>      -0.00513241       0.00296320       0.00562299 </v>
   <v>      -0.00000000      -0.00554410      -0.04150948 </v>
   <v>       0.00000000      -0.00592640       0.00562299 </v>
   <v>       0.00480133       0.00277205      -0.04150948 </v>
   <v>       0.00513241       0.00296320       0.00562299 </v>
   <v>       0.00000000       0.00554410       0.04150948 </v>
   <v>       0.00000000       0.00592640      -0.00562299 </v>
   <v>       0.00480133      -0.00277205       0.04150948 </v>
   <v>       0.00513241      -0.00296320      -0.00562299 </v>
   <v>      -0.00480133      -0.00277205       0.04150948 </v>
   <v>      -0.00513241      -0.00296320      -0.00562299 </v>
   <v>       0.00695465       0.00401527       0.00426969 </v>
   <v>      -0.02190883      -0.01264907      -0.01879834 </v>
   <v>      -0.00695465       0.00401527       0.00426969 </v>
   <v>       0.02190883      -0.01264907      -0.01879834 </v>
   <v>       0.00000000      -0.00000000      -0.00696667 </v>
   <v>      -0.00000000      -0.00000000      -0.26135122 </v>
   <v>      -0.00000000      -0.00000000       0.00696667 </v>
   <v>       0.00000000      -0.00000000       0.04610174 </v>
   <v>       0.00000000      -0.00000000       0.12851023 </v>
   <v>       0.00000000      -0.00000000       0.31189894 </v>
   <v>       0.00000000      -0.00000000      -0.01644694 </v>
   <v>       0.00000000      -0.00000000       0.40328167 </v>
   <v>      -0.00000000      -0.00000000      -0.40328167 </v>
   <v>      -0.00000000      -0.00000000       0.01644694 </v>
   <v>       0.00000000      -0.00000000      -0.31189894 </v>
   <v>      -0.00000000      -0.00000000      -0.12851023 </v>
   <v>      -0.00000000      -0.00000000      -0.04610174 </v>
[...]
       <r>    16.4732    -0.0000   416.0000 </r>
       <r>    16.7030     0.0000   416.0000 </r>
       <r>    16.9327     0.0000   416.0000 </r>
       <r>    17.1625     0.0000   416.0000 </r>
       <r>    17.3922     0.0000   416.0000 </r>
       <r>    17.6220     0.0000   416.0000 </r>
       <r>    17.8518     0.0000   416.0000 </r>
       <r>    18.0815     0.0000   416.0000 </r>
       <r>    18.3113     0.0000   416.0000 </r>
      </set>
      <set comment="spin 2">
       <r>   -50.6170     0.0000     0.0000 </r>
       <r>   -50.3873     0.0000     0.0000 </r>
       <r>   -50.1575     0.0000     0.0000 </r>
       <r>   -49.9278     0.0000     0.0000 </r>
       <r>   -49.6980     0.0000     0.0000 </r>
       <r>   -49.4682     0.0000     0.0000 </r>
       <r>   -49.2385    -0.0000    -0.0000 </r>
       <r>   -49.0087    -0.0000    -0.0000 </r>
       <r>   -48.7790    -0.0000    -0.0000 </r>
       <r>   -48.5492    -0.0000    -0.0000 </r>
       <r>   -48.3194    -0.0000    -0.0000 </r>
       <r>   -48.0897    -0.0010    -0.0002 </r>
       <r>   -47.8599    -0.1690    -0.0390 </r>
       <r>   -47.6302    -0.1519    -0.0739 </r>
       <r>   -47.4004    16.1000     3.6252 </r>
       <r>   -47.1706    29.9012    10.4953 </r>
       <r>   -46.9409    15.9118    14.1512 </r>
       <r>   -46.7111    -0.5243    14.0308 </r>
       <r>   -46.4813    -0.1333    14.0002 </r>
       <r>   -46.2516    -0.0007    14.0000 </r>
       <r>   -46.0218    -0.0000    14.0000 </r>
       <r>   -45.7921    -0.0000    14.0000 </r>
       <r>   -45.5623     0.0000    14.0000 </r>
       <r>   -45.3325     0.0000    14.0000 </r>
       <r>   -45.1028     0.0000    14.0000 </r>
       <r>   -44.8730     0.0000    14.0000 </r>
       <r>   -44.6433     0.0000    14.0000 </r>
       <r>   -44.4135     0.0000    14.0000 </r>
       <r>   -44.1837     0.0000    14.0000 </r>
       <r>   -43.9540     0.0000    14.0000 </r>
       <r>   -43.7242     0.0000    14.0000 </r>
       <r>   -43.4945     0.0000    14.0000 </r>
       <r>   -43.2647     0.0000    14.0000 </r>
       <r>   -43.0349     0.0000    14.0000 </r>
       <r>   -42.8052     0.0000    14.0000 </r>
       <r>   -42.5754     0.0000    14.0000 </r>
       <r>   -42.3456     0.0000    14.0000 </r>
       <r>   -42.1159     0.0000    14.0000 </r>
       <r>   -41.8861     0.0000    14.0000 </r>
       <r>   -41.6564     0.0000    14.0000 </r>
       <r>   -41.4266     0.0000    14.0000 </r>
       <r>   -41.1968     0.0000    14.0000 </r>
       <r>   -40.9671     0.0000    14.0000 </r>
       <r>   -40.7373     0.0000    14.0000 </r>
       <r>   -40.5076     0.0000    14.0000 </r>
       <r>   -40.2778     0.0000    14.0000 </r>
       <r>   -40.0480     0.0000    14.0000 </r>
       <r>   -39.8183     0.0000    14.0000 </r>
       <r>   -39.5885     0.0000    14.0000 </r>
       <r>   -39.3588     0.0000    14.0000 </r>
       <r>   -39.1290     0.0000    14.0000 </r>
       <r>   -38.8992     0.0000    14.0000 </r>
       <r>   -38.6695     0.0000    14.0000 </r>
       <r>   -38.4397     0.0000    14.0000 </r>
       <r>   -38.2099     0.0000    14.0000 </r>
       <r>   -37.9802     0.0000    14.0000 </r>
       <r>   -37.7504     0.0000    14.0000 </r>
       <r>   -37.5207     0.0000    14.0000 </r>
       <r>   -37.2909     0.0000    14.0000 </r>
       <r>   -37.0611     0.0000    14.0000 </r>
       <r>   -36.8314     0.0000    14.0000 </r>
       <r>   -36.6016     0.0000    14.0000 </r>
       <r>   -36.3719     0.0000    14.0000 </r>
       <r>   -36.1421     0.0000    14.0000 </r>
       <r>   -35.9123     0.0000    14.0000 </r>
       <r>   -35.6826     0.0000    14.0000 </r>
       <r>   -35.4528     0.0000    14.0000 </r>
       <r>   -35.2231     0.0000    14.0000 </r>
       <r>   -34.9933     0.0000    14.0000 </r>
       <r>   -34.7635     0.0000    14.0000 </r>
       <r>   -34.5338     0.0000    14.0000 </r>
       <r>   -34.3040     0.0000    14.0000 </r>
       <r>   -34.0742     0.0000    14.0000 </r>
       <r>   -33.8445     0.0000    14.0000 </r>
       <r>   -33.6147     0.0000    14.0000 </r>
       <r>   -33.3850     0.0000    14.0000 </r>
       <r>   -33.1552     0.0000    14.0000 </r>
       <r>   -32.9254     0.0000    14.0000 </r>
       <r>   -32.6957     0.0000    14.0000 </r>
       <r>   -32.4659     0.0000    14.0000 </r>
       <r>   -32.2362     0.0000    14.0000 </r>
       <r>   -32.0064     0.0000    14.0000 </r>
       <r>   -31.7766     0.0000    14.0000 </r>
       <r>   -31.5469     0.0000    14.0000 </r>
       <r>   -31.3171     0.0000    14.0000 </r>
       <r>   -31.0874     0.0000    14.0000 </r>
       <r>   -30.8576     0.0000    14.0000 </r>
       <r>   -30.6278     0.0000    14.0000 </r>
       <r>   -30.3981     0.0000    14.0000 </r>
       <r>   -30.1683     0.0000    14.0000 </r>
       <r>   -29.9385     0.0000    14.0000 </r>
       <r>   -29.7088     0.0000    14.0000 </r>
       <r>   -29.4790     0.0000    14.0000 </r>
       <r>   -29.2493     0.0000    14.0000 </r>
       <r>   -29.0195     0.0000    14.0000 </r>
       <r>   -28.7897     0.0000    14.0000 </r>
       <r>   -28.5600     0.0000    14.0000 </r>
       <r>   -28.3302     0.0000    14.0000 </r>
       <r>   -28.1005     0.0000    14.0000 </r>
       <r>   -27.8707     0.0000    14.0000 </r>
       <r>   -27.6409     0.0000    14.0000 </r>
       <r>   -27.4112     0.0000    14.0000 </r>
       <r>   -27.1814     0.0000    14.0000 </r>
       <r>   -26.9517     0.0000    14.0000 </r>
       <r>   -26.7219     0.0000    14.0000 </r>
       <r>   -26.4921     0.0000    14.0000 </r>
       <r>   -26.2624     0.0000    14.0000 </r>
       <r>   -26.0326     0.0000    14.0000 </r>
       <r>   -25.8028     0.0000    14.0000 </r>
       <r>   -25.5731    -0.0000    14.0000 </r>
       <r>   -25.3433    -0.0000    14.0000 </r>
       <r>   -25.1136    -0.0000    14.0000 </r>
       <r>   -24.8838    -0.0000    14.0000 </r>
       <r>   -24.6540    -0.0000    14.0000 </r>
       <r>   -24.4243    -0.0005    13.9999 </r>
       <r>   -24.1945    -0.1789    13.9588 </r>
       <r>   -23.9648    -2.1510    13.4646 </r>
       <r>   -23.7350    30.3174    20.4303 </r>
       <r>   -23.5052    84.5492    39.8565 </r>
       <r>   -23.2755    67.4822    55.3613 </r>
       <r>   -23.0457     3.8229    56.2396 </r>
       <r>   -22.8160    -1.0308    56.0028 </r>
       <r>   -22.5862    -0.0121    56.0000 </r>
       <r>   -22.3564    -0.0000    56.0000 </r>
       <r>   -22.1267    -0.0000    56.0000 </r>
       <r>   -21.8969    -0.0000    56.0000 </r>
       <r>   -21.6671     0.0000    56.0000 </r>
       <r>   -21.4374     0.0000    56.0000 </r>
       <r>   -21.2076     0.0000    56.0000 </r>
       <r>   -20.9779     0.0000    56.0000 </r>
       <r>   -20.7481     0.0000    56.0000 </r>
       <r>   -20.5183     0.0000    56.0000 </r>
       <r>   -20.2886     0.0000    56.0000 </r>
       <r>   -20.0588     0.0000    56.0000 </r>
       <r>   -19.8291     0.0000    56.0000 </r>
       <r>   -19.5993     0.0000    56.0000 </r>
       <r>   -19.3695     0.0000    56.0000 </r>
       <r>   -19.1398     0.0000    56.0000 </r>
       <r>   -18.9100     0.0000    56.0000 </r>
       <r>   -18.6803     0.0000    56.0000 </r>
       <r>   -18.4505     0.0000    56.0000 </r>
       <r>   -18.2207     0.0000    56.0000 </r>
       <r>   -17.9910     0.0000    56.0000 </r>
       <r>   -17.7612     0.0000    56.0000 </r>
       <r>   -17.5314     0.0000    56.0000 </r>
       <r>   -17.3017     0.0000    56.0000 </r>
       <r>   -17.0719     0.0000    56.0000 </r>
       <r>   -16.8422     0.0000    56.0000 </r>
       <r>   -16.6124     0.0000    56.0000 </r>
       <r>   -16.3826     0.0000    56.0000 </r>
       <r>   -16.1529     0.0000    56.0000 </r>
       <r>   -15.9231     0.0000    56.0000 </r>
       <r>   -15.6934     0.0000    56.0000 </r>
       <r>   -15.4636     0.0000    56.0000 </r>
       <r>   -15.2338     0.0000    56.0000 </r>
       <r>   -15.0041     0.0000    56.0000 </r>
       <r>   -14.7743     0.0000    56.0000 </r>
       <r>   -14.5445     0.0000    56.0000 </r>
       <r>   -14.3148     0.0000    56.0000 </r>
       <r>   -14.0850     0.0000    56.0000 </r>
       <r>   -13.8553     0.0000    56.0000 </r>
       <r>   -13.6255     0.0000    56.0000 </r>
       <r>   -13.3957     0.0000    56.0000 </r>
       <r>   -13.1660     0.0000    56.0000 </r>
       <r>   -12.9362     0.0000    56.0000 </r>
       <r>   -12.7065     0.0000    56.0000 </r>
       <r>   -12.4767     0.0000    56.0000 </r>
       <r>   -12.2469     0.0000    56.0000 </r>
       <r>   -12.0172     0.0000    56.0000 </r>
       <r>   -11.7874     0.0000    56.0000 </r>
       <r>   -11.5577     0.0000    56.0000 </r>
       <r>   -11.3279     0.0000    56.0000 </r>
       <r>   -11.0981     0.0000    56.0000 </r>
       <r>   -10.8684     0.0000    56.0000 </r>
       <r>   -10.6386     0.0000    56.0000 </r>
       <r>   -10.4088     0.0000    56.0000 </r>
       <r>   -10.1791     0.0000    56.0000 </r>
       <r>    -9.9493     0.0000    56.0000 </r>
       <r>    -9.7196     0.0000    56.0000 </r>
       <r>    -9.4898     0.0000    56.0000 </r>
       <r>    -9.2600     0.0000    56.0000 </r>
       <r>    -9.0303     0.0000    56.0000 </r>
       <r>    -8.8005     0.0000    56.0000 </r>
       <r>    -8.5708     0.0000    56.0000 </r>
       <r>    -8.3410     0.0000    56.0000 </r>
       <r>    -8.1112     0.0000    56.0000 </r>
       <r>    -7.8815     0.0000    56.0000 </r>
       <r>    -7.6517     0.0000    56.0000 </r>
       <r>    -7.4220     0.0000    56.0000 </r>
       <r>    -7.1922     0.0000    56.0000 </r>
       <r>    -6.9624     0.0000    56.0000 </r>
       <r>    -6.7327     0.0000    56.0000 </r>
       <r>    -6.5029     0.0000    56.0000 </r>
       <r>    -6.2731     0.0000    56.0000 </r>
       <r>    -6.0434     0.0000    56.0000 </r>
       <r>    -5.8136     0.0000    56.0000 </r>
       <r>    -5.5839     0.0000    56.0000 </r>
       <r>    -5.3541     0.0000    56.0000 </r>
       <r>    -5.1243     0.0000    56.0000 </r>
       <r>    -4.8946     0.0000    56.0000 </r>
       <r>    -4.6648     0.0000    56.0000 </r>
       <r>    -4.4351     0.0000    56.0000 </r>
       <r>    -4.2053     0.0000    56.0000 </r>
       <r>    -3.9755     0.0000    56.0000 </r>
       <r>    -3.7458     0.0000    56.0000 </r>
       <r>    -3.5160     0.0000    56.0000 </r>
       <r>    -3.2863     0.0000    56.0000 </r>
       <r>    -3.0565     0.0000    56.0000 </r>
       <r>    -2.8267     0.0000    56.0000 </r>
       <r>    -2.5970     0.0000    56.0000 </r>
       <r>    -2.3672     0.0000    56.0000 </r>
       <r>    -2.1374     0.0000    56.0000 </r>
       <r>    -1.9077     0.0000    56.0000 </r>
       <r>    -1.6779     0.0000    56.0000 </r>
       <r>    -1.4482     0.0000    56.0000 </r>
       <r>    -1.2184     0.0000    56.0000 </r>
       <r>    -0.9886     0.0000    56.0000 </r>
       <r>    -0.7589    -0.0000    56.0000 </r>
       <r>    -0.5291    -0.0000    56.0000 </r>
       <r>    -0.2994    -0.0000    56.0000 </r>
       <r>    -0.0696    -0.0000    56.0000 </r>
       <r>     0.1602    -0.0000    56.0000 </r>
       <r>     0.3899    -0.0000    56.0000 </r>
       <r>     0.6197    -0.0019    55.9996 </r>
       <r>     0.8494    -0.0086    55.9976 </r>
       <r>     1.0792     0.2015    56.0439 </r>
       <r>     1.3090     0.7052    56.2059 </r>
       <r>     1.5387     1.2748    56.4988 </r>
       <r>     1.7685     1.6718    56.8829 </r>
       <r>     1.9983     2.0231    57.3478 </r>
       <r>     2.2280     2.4206    57.9039 </r>
       <r>     2.4578     2.9679    58.5858 </r>
       <r>     2.6875     3.4975    59.3894 </r>
       <r>     2.9173     3.0435    60.0887 </r>
       <r>     3.1471     2.6461    60.6966 </r>
       <r>     3.3768     3.1353    61.4170 </r>
       <r>     3.6066     4.1660    62.3742 </r>
       <r>     3.8363     5.1447    63.5562 </r>
       <r>     4.0661     5.4440    64.8071 </r>
       <r>     4.2959     5.8496    66.1511 </r>
       <r>     4.5256     6.6334    67.6752 </r>
       <r>     4.7554     7.6815    69.4401 </r>
       <r>     4.9851     9.2444    71.5641 </r>
       <r>     5.2149    13.6030    74.6895 </r>
       <r>     5.4447    20.4992    79.3994 </r>
       <r>     5.6744    23.9383    84.8995 </r>
       <r>     5.9042    27.9046    91.3109 </r>
       <r>     6.1340    34.5467    99.2484 </r>
       <r>     6.3637    46.3211   109.8912 </r>
       <r>     6.5935    54.0704   122.3145 </r>
       <r>     6.8232    61.4182   136.4260 </r>
       <r>     7.0530    55.7794   149.2419 </r>
       <r>     7.2828    59.3737   162.8837 </r>
       <r>     7.5125    64.7372   177.7578 </r>
       <r>     7.7423    68.7329   193.5500 </r>
       <r>     7.9720    83.9104   212.8293 </r>
       <r>     8.2018    83.8378   232.0920 </r>
       <r>     8.4316    86.2944   251.9191 </r>
       <r>     8.6613    80.5836   270.4340 </r>
       <r>     8.8911    78.7576   288.5295 </r>
       <r>     9.1208    60.8640   302.5137 </r>
       <r>     9.3506    51.4667   314.3387 </r>
       <r>     9.5804    34.1895   322.1941 </r>
       <r>     9.8101    17.7793   326.2791 </r>
       <r>    10.0399     5.3757   327.5142 </r>
       <r>    10.2697     8.0849   329.3718 </r>
       <r>    10.4994    19.6244   333.8808 </r>
       <r>    10.7292    50.0199   345.3734 </r>
       <r>    10.9589    60.1072   359.1837 </r>
       <r>    11.1887    43.8449   369.2576 </r>
       <r>    11.4185    27.5471   375.5868 </r>
       <r>    11.6482    25.2291   381.3835 </r>
       <r>    11.8780    24.0129   386.9007 </r>
       <r>    12.1077    20.0711   391.5123 </r>
       <r>    12.3375    13.8997   394.7059 </r>
       <r>    12.5673    11.3950   397.3240 </r>
       <r>    12.7970    10.7710   399.7988 </r>
       <r>    13.0268    10.8327   402.2877 </r>
       <r>    13.2565     9.8054   404.5406 </r>
       <r>    13.4863    10.9640   407.0597 </r>
       <r>    13.7161    11.3686   409.6718 </r>
       <r>    13.9458     9.3357   411.8168 </r>
       <r>    14.1756     7.5762   413.5575 </r>
       <r>    14.4054     5.4999   414.8212 </r>
       <r>    14.6351     3.2744   415.5735 </r>
       <r>    14.8649     1.2955   415.8711 </r>
       <r>    15.0946     0.5038   415.9869 </r>
       <r>    15.3244     0.0639   416.0016 </r>
       <r>    15.5542    -0.0061   416.0002 </r>
       <r>    15.7839    -0.0007   416.0000 </r>
       <r>    16.0137    -0.0000   416.0000 </r>
       <r>    16.2434    -0.0000   416.0000 </r>
       <r>    16.4732    -0.0000   416.0000 </r>
       <r>    16.7030     0.0000   416.0000 </r>
       <r>    16.9327     0.0000   416.0000 </r>
       <r>    17.1625     0.0000   416.0000 </r>
       <r>    17.3922     0.0000   416.0000 </r>
       <r>    17.6220     0.0000   416.0000 </r>
       <r>    17.8518     0.0000   416.0000 </r>
       <r>    18.0815     0.0000   416.0000 </r>
       <r>    18.3113     0.0000   416.0000 </r>
      </set>
     </set>
    </array>
   </total>
  </dos>
 </calculation>
 <structure name="finalpos" >
  <crystal>
   <varray name="basis" >
    <v>       5.08440739      -0.00000000      -0.00000000 </v>
    <v>      -2.54220370       4.40322660      -0.00000000 </v>
    <v>      -0.00000000      -0.00000000      33.17916232 </v>
   </varray>
   <i name="volume">    742.80837917 </i>
   <varray name="rec_basis" >
    <v>       0.19667975       0.11355309       0.00000000 </v>
    <v>       0.00000000       0.22710619       0.00000000 </v>
    <v>       0.00000000       0.00000000       0.03013940 </v>
   </varray>
  </crystal>
  <varray name="positions" >
   <v>       0.33333330       0.66666670       0.93771368 </v>
   <v>       0.33333330       0.66666670       0.12478632 </v>
   <v>       0.17168941       0.34337871       0.74947552 </v>
   <v>       0.49497729      -0.01004541       0.31302448 </v>
   <v>       0.49485317       0.50514683       0.81257500 </v>
   <v>       0.49497729       0.50502271       0.31302448 </v>
   <v>       0.65662129       0.82831059       0.74947552 </v>
   <v>       0.65637304       0.82818647       0.24992500 </v>
   <v>       0.17168941       0.82831059       0.74947552 </v>
   <v>       0.17181353       0.82818647       0.24992500 </v>
   <v>       0.01004541       0.50502271       0.31302448 </v>
   <v>       0.17181353       0.34362696       0.24992500 </v>
   <v>      -0.00210712       0.49894644       0.68709374 </v>
   <v>      -0.00146674       0.49926663       0.18728553 </v>
   <v>       0.50105356       0.00210712       0.68709374 </v>
   <v>       0.50073337       0.00146674       0.18728553 </v>
   <v>       0.50105356       0.49894644       0.68709374 </v>
   <v>       0.50073337       0.49926663       0.18728553 </v>
   <v>       0.49485317      -0.01029366       0.81257500 </v>
   <v>       0.83307828       0.66615666       0.12501903 </v>
   <v>       0.01029366       0.50514683       0.81257500 </v>
   <v>       0.16561314       0.33122618       0.37540626 </v>
   <v>       0.16593333       0.33186656       0.87521447 </v>
   <v>       0.16561314       0.83438686       0.37540626 </v>
   <v>       0.16593333       0.83406667       0.87521447 </v>
   <v>       0.66877382       0.83438686       0.37540626 </v>
   <v>       0.66813344       0.83406667       0.87521447 </v>
   <v>       0.33352300       0.16676155       0.43766505 </v>
   <v>       0.33282326       0.16641168       0.93748097 </v>
   <v>       0.83323845       0.16676155       0.43766505 </v>
   <v>       0.83358832       0.16641168       0.93748097 </v>
   <v>       0.83323845       0.66647700       0.43766505 </v>
   <v>       0.83358832       0.66717674       0.93748097 </v>
   <v>       0.83342815       0.66685640       0.62483495 </v>
   <v>       0.49992108       0.50007892      -0.00024488 </v>
   <v>       0.49996764       0.50003236       0.50003433 </v>
   <v>       0.49992108      -0.00015785      -0.00024488 </v>
   <v>       0.49996764      -0.00006472       0.50003433 </v>
   <v>       0.00015785       0.50007892      -0.00024488 </v>
   <v>       0.00006472       0.50003236       0.50003433 </v>
   <v>       0.16674562       0.33349115       0.06274488 </v>
   <v>       0.16669906       0.33339802       0.56246567 </v>
   <v>       0.16674562       0.83325438       0.06274488 </v>
   <v>       0.16669906       0.83330094       0.56246567 </v>
   <v>       0.66650885       0.83325438       0.06274488 </v>
   <v>       0.66660198       0.83330094       0.56246567 </v>
   <v>       0.33384334       0.16692172       0.12501903 </v>
   <v>       0.33314360       0.16657185       0.62483495 </v>
   <v>       0.83307828       0.16692172       0.12501903 </v>
   <v>       0.83342815       0.16657185       0.62483495 </v>
   <v>      -0.00000000       0.00000000       0.49986338 </v>
   <v>       0.66666670       0.33333330       0.06103915 </v>
   <v>       0.66666670       0.33333330       0.56263662 </v>
   <v>       0.33333330       0.66666670       0.62537071 </v>
   <v>      -0.00000000       0.00000000       0.18808161 </v>
   <v>      -0.00000000       0.00000000       0.68920993 </v>
   <v>       0.66666670       0.33333330       0.24972641 </v>
   <v>       0.66666670       0.33333330       0.75227037 </v>
   <v>      -0.00000000       0.00000000       0.31022963 </v>
   <v>      -0.00000000       0.00000000       0.81277359 </v>
   <v>       0.66666670       0.33333330       0.37329007 </v>
   <v>       0.66666670       0.33333330       0.87441839 </v>
   <v>       0.33333330       0.66666670       0.43712929 </v>
   <v>      -0.00000000       0.00000000       0.00146085 </v>
  </varray>
 </structure>
</modeling>
