Test of VASP submission                 
           1
     5.103957   -0.000000   -0.000000
    -2.551979    4.420157   -0.000000
     0.000000    0.000000   33.325156
   Al   Ni   Ti
   2  48  14
Direct configuration=     1
   0.33333330  0.66666670  0.93750000
   0.33333330  0.66666670  0.12500000
   0.16666670  0.33333330  0.75000000
   0.50000000  0.00000000  0.31250000
   0.50000000  0.50000000  0.81250000
   0.50000000  0.50000000  0.31250000
   0.66666670  0.83333330  0.75000000
   0.66666670  0.83333330  0.25000000
   0.16666670  0.83333330  0.75000000
   0.16666670  0.83333330  0.25000000
   0.00000000  0.50000000  0.31250000
   0.16666670  0.33333330  0.25000000
   0.00000000  0.50000000  0.68750000
   0.00000000  0.50000000  0.18750000
   0.50000000  0.00000000  0.68750000
   0.50000000  0.00000000  0.18750000
   0.50000000  0.50000000  0.68750000
   0.50000000  0.50000000  0.18750000
   0.50000000  0.00000000  0.81250000
   0.83333330  0.66666670  0.12500000
   0.00000000  0.50000000  0.81250000
   0.16666670  0.33333330  0.37500000
   0.16666670  0.33333330  0.87500000
   0.16666670  0.83333330  0.37500000
   0.16666670  0.83333330  0.87500000
   0.66666670  0.83333330  0.37500000
   0.66666670  0.83333330  0.87500000
   0.33333330  0.16666670  0.43750000
   0.33333330  0.16666670  0.93750000
   0.83333330  0.16666670  0.43750000
   0.83333330  0.16666670  0.93750000
   0.83333330  0.66666670  0.43750000
   0.83333330  0.66666670  0.93750000
   0.83333330  0.66666670  0.62500000
   0.50000000  0.50000000  0.00000000
   0.50000000  0.50000000  0.50000000
   0.50000000  0.00000000  0.00000000
   0.50000000  0.00000000  0.50000000
   0.00000000  0.50000000  0.00000000
   0.00000000  0.50000000  0.50000000
   0.16666670  0.33333330  0.06250000
   0.16666670  0.33333330  0.56250000
   0.16666670  0.83333330  0.06250000
   0.16666670  0.83333330  0.56250000
   0.66666670  0.83333330  0.06250000
   0.66666670  0.83333330  0.56250000
   0.33333330  0.16666670  0.12500000
   0.33333330  0.16666670  0.62500000
   0.83333330  0.16666670  0.12500000
   0.83333330  0.16666670  0.62500000
   0.00000000  0.00000000  0.50000000
   0.66666670  0.33333330  0.06250000
   0.66666670  0.33333330  0.56250000
   0.33333330  0.66666670  0.62500000
   0.00000000  0.00000000  0.18750000
   0.00000000  0.00000000  0.68750000
   0.66666670  0.33333330  0.25000000
   0.66666670  0.33333330  0.75000000
   0.00000000  0.00000000  0.31250000
   0.00000000  0.00000000  0.81250000
   0.66666670  0.33333330  0.37500000
   0.66666670  0.33333330  0.87500000
   0.33333330  0.66666670  0.43750000
   0.00000000  0.00000000  0.00000000
Test of VASP submission                 
           1
     5.108218   -0.000000   -0.000000
    -2.554109    4.423848   -0.000000
     0.000000    0.000000   33.351021
   Al   Ni   Ti
   2  48  14
Direct configuration=     2
   0.33333330  0.66666670  0.93762057
   0.33333330  0.66666670  0.12487943
   0.17058248  0.34116487  0.74975433
   0.49608422 -0.00783157  0.31274567
   0.49634682  0.50365318  0.81239300
   0.49608422  0.50391578  0.31274567
   0.65883513  0.82941752  0.74975433
   0.65936034  0.82968012  0.25010700
   0.17058248  0.82941752  0.74975433
   0.17031988  0.82968012  0.25010700
   0.00783157  0.50391578  0.31274567
   0.17031988  0.34063966  0.25010700
  -0.00001818  0.49999091  0.68725655
  -0.00084636  0.49957682  0.18745629
   0.50000909  0.00001818  0.68725655
   0.50042318  0.00084636  0.18745629
   0.50000909  0.49999091  0.68725655
   0.50042318  0.49957682  0.18745629
   0.49634682 -0.00730636  0.81239300
   0.83316154  0.66632319  0.12502289
   0.00730636  0.50365318  0.81239300
   0.16665761  0.33331512  0.37524345
   0.16624352  0.33248694  0.87504371
   0.16665761  0.83334239  0.37524345
   0.16624352  0.83375648  0.87504371
   0.66668488  0.83334239  0.37524345
   0.66751306  0.83375648  0.87504371
   0.33251332  0.16625671  0.43766267
   0.33298979  0.16649494  0.93747711
   0.83374329  0.16625671  0.43766267
   0.83350506  0.16649494  0.93747711
   0.83374329  0.66748668  0.43766267
   0.83350506  0.66701021  0.93747711
   0.83292331  0.66584672  0.62483733
   0.50014827  0.49985173 -0.00006011
   0.50005494  0.49994506  0.50002556
   0.50014827  0.00029653 -0.00006011
   0.50005494  0.00010987  0.50002556
  -0.00029653  0.49985173 -0.00006011
  -0.00010987  0.49994506  0.50002556
   0.16651843  0.33303677  0.06256011
   0.16661176  0.33322343  0.56247444
   0.16651843  0.83348157  0.06256011
   0.16661176  0.83338824  0.56247444
   0.66696323  0.83348157  0.06256011
   0.66677657  0.83338824  0.56247444
   0.33367681  0.16683846  0.12502289
   0.33415328  0.16707669  0.62483733
   0.83316154  0.16683846  0.12502289
   0.83292331  0.16707669  0.62483733
  -0.00000000  0.00000000  0.49988637
   0.66666670  0.33333330  0.06188475
   0.66666670  0.33333330  0.56261363
   0.33333330  0.66666670  0.62530495
  -0.00000000  0.00000000  0.18768996
  -0.00000000  0.00000000  0.68837236
   0.66666670  0.33333330  0.24962534
   0.66666670  0.33333330  0.75104875
  -0.00000000  0.00000000  0.31145125
  -0.00000000  0.00000000  0.81287466
   0.66666670  0.33333330  0.37412764
   0.66666670  0.33333330  0.87481004
   0.33333330  0.66666670  0.43719505
  -0.00000000  0.00000000  0.00061525
Test of VASP submission                 
           1
     5.093356   -0.000000   -0.000000
    -2.546678    4.410976   -0.000000
    -0.000000   -0.000000   33.241810
   Al   Ni   Ti
   2  48  14
Direct configuration=     3
   0.33333330  0.66666670  0.93763774
   0.33333330  0.66666670  0.12486226
   0.17113990  0.34227970  0.74971935
   0.49552680 -0.00894640  0.31278065
   0.49582678  0.50417322  0.81237776
   0.49552680  0.50447320  0.31278065
   0.65772030  0.82886010  0.74971935
   0.65832026  0.82916008  0.25012224
   0.17113990  0.82886010  0.74971935
   0.17083992  0.82916008  0.25012224
   0.00894640  0.50447320  0.31278065
   0.17083992  0.34167974  0.25012224
  -0.00002076  0.49998962  0.68722187
  -0.00096684  0.49951658  0.18745007
   0.50001038  0.00002076  0.68722187
   0.50048342  0.00096684  0.18745007
   0.50001038  0.49998962  0.68722187
   0.50048342  0.49951658  0.18745007
   0.49582678 -0.00834644  0.81237776
   0.83313710  0.66627429  0.12502615
   0.00834644  0.50417322  0.81237776
   0.16665632  0.33331254  0.37527813
   0.16618328  0.33236646  0.87504993
   0.16665632  0.83334368  0.37527813
   0.16618328  0.83381672  0.87504993
   0.66668746  0.83334368  0.37527813
   0.66763354  0.83381672  0.87504993
   0.33239659  0.16619835  0.43768583
   0.33294089  0.16647050  0.93747385
   0.83380165  0.16619835  0.43768583
   0.83352950  0.16647050  0.93747385
   0.83380165  0.66760341  0.43768583
   0.83352950  0.66705911  0.93747385
   0.83286495  0.66572999  0.62481417
   0.50016937  0.49983063 -0.00006867
   0.50006276  0.49993724  0.50002920
   0.50016937  0.00033874 -0.00006867
   0.50006276  0.00012551  0.50002920
  -0.00033874  0.49983063 -0.00006867
  -0.00012551  0.49993724  0.50002920
   0.16649733  0.33299456  0.06256867
   0.16660394  0.33320779  0.56247080
   0.16649733  0.83350267  0.06256867
   0.16660394  0.83339606  0.56247080
   0.66700544  0.83350267  0.06256867
   0.66679221  0.83339606  0.56247080
   0.33372571  0.16686290  0.12502615
   0.33427001  0.16713505  0.62481417
   0.83313710  0.16686290  0.12502615
   0.83286495  0.16713505  0.62481417
  -0.00000000  0.00000000  0.49987018
   0.66666670  0.33333330  0.06179713
   0.66666670  0.33333330  0.56262982
   0.33333330  0.66666670  0.62534837
  -0.00000000  0.00000000  0.18771701
  -0.00000000  0.00000000  0.68849660
   0.66666670  0.33333330  0.24957198
   0.66666670  0.33333330  0.75119810
  -0.00000000  0.00000000  0.31130190
  -0.00000000  0.00000000  0.81292802
   0.66666670  0.33333330  0.37400340
   0.66666670  0.33333330  0.87478299
   0.33333330  0.66666670  0.43715163
  -0.00000000  0.00000000  0.00070287
Test of VASP submission                 
           1
     5.091982   -0.000000   -0.000000
    -2.545991    4.409787   -0.000000
    -0.000000   -0.000000   33.231718
   Al   Ni   Ti
   2  48  14
Direct configuration=     4
   0.33333330  0.66666670  0.93771280
   0.33333330  0.66666670  0.12478720
   0.17227450  0.34454891  0.74955115
   0.49439220 -0.01121561  0.31294885
   0.49456283  0.50543717  0.81242034
   0.49439220  0.50560780  0.31294885
   0.65545109  0.82772550  0.74955115
   0.65579236  0.82789613  0.25007966
   0.17227450  0.82772550  0.74955115
   0.17210387  0.82789613  0.25007966
   0.01121561  0.50560780  0.31294885
   0.17210387  0.34420764  0.25007966
  -0.00095621  0.49952189  0.68710253
  -0.00142520  0.49928740  0.18738634
   0.50047811  0.00095621  0.68710253
   0.50071260  0.00142520  0.18738634
   0.50047811  0.49952189  0.68710253
   0.50071260  0.49928740  0.18738634
   0.49456283 -0.01087434  0.81242034
   0.83307367  0.66614745  0.12503260
   0.01087434  0.50543717  0.81242034
   0.16618859  0.33237709  0.37539747
   0.16595410  0.33190810  0.87511366
   0.16618859  0.83381141  0.37539747
   0.16595410  0.83404590  0.87511366
   0.66762291  0.83381141  0.37539747
   0.66809190  0.83404590  0.87511366
   0.33268424  0.16634217  0.43771749
   0.33281405  0.16640707  0.93746740
   0.83365783  0.16634217  0.43771749
   0.83359293  0.16640707  0.93746740
   0.83365783  0.66731576  0.43771749
   0.83359293  0.66718595  0.93746740
   0.83300877  0.66601764  0.62478251
   0.50015732  0.49984268 -0.00013466
   0.50002582  0.49997418  0.50003628
   0.50015732  0.00031464 -0.00013466
   0.50002582  0.00005164  0.50003628
  -0.00031464  0.49984268 -0.00013466
  -0.00005164  0.49997418  0.50003628
   0.16650938  0.33301866  0.06263466
   0.16664088  0.33328166  0.56246372
   0.16650938  0.83349062  0.06263466
   0.16664088  0.83335912  0.56246372
   0.66698134  0.83349062  0.06263466
   0.66671834  0.83335912  0.56246372
   0.33385255  0.16692633  0.12503260
   0.33398236  0.16699123  0.62478251
   0.83307367  0.16692633  0.12503260
   0.83300877  0.16699123  0.62478251
  -0.00000000  0.00000000  0.49985876
   0.66666670  0.33333330  0.06132755
   0.66666670  0.33333330  0.56264124
   0.33333330  0.66666670  0.62542387
  -0.00000000  0.00000000  0.18794976
  -0.00000000  0.00000000  0.68904109
   0.66666670  0.33333330  0.24954214
   0.66666670  0.33333330  0.75189889
  -0.00000000  0.00000000  0.31060111
  -0.00000000  0.00000000  0.81295786
   0.66666670  0.33333330  0.37345891
   0.66666670  0.33333330  0.87455024
   0.33333330  0.66666670  0.43707613
  -0.00000000  0.00000000  0.00117245
Test of VASP submission                 
           1
     5.089236   -0.000000   -0.000000
    -2.544618    4.407408   -0.000000
    -0.000000   -0.000000   33.211534
   Al   Ni   Ti
   2  48  14
Direct configuration=     5
   0.33333330  0.66666670  0.93771976
   0.33333330  0.66666670  0.12478024
   0.17237966  0.34475921  0.74953555
   0.49428704 -0.01142591  0.31296445
   0.49444569  0.50555431  0.81242429
   0.49428704  0.50571296  0.31296445
   0.65524079  0.82762034  0.74953555
   0.65555808  0.82777899  0.25007571
   0.17237966  0.82762034  0.74953555
   0.17222101  0.82777899  0.25007571
   0.01142591  0.50571296  0.31296445
   0.17222101  0.34444192  0.25007571
  -0.00104291  0.49947855  0.68709147
  -0.00146768  0.49926616  0.18738043
   0.50052145  0.00104291  0.68709147
   0.50073384  0.00146768  0.18738043
   0.50052145  0.49947855  0.68709147
   0.50073384  0.49926616  0.18738043
   0.49444569 -0.01110862  0.81242429
   0.83306780  0.66613569  0.12503320
   0.01110862  0.50555431  0.81242429
   0.16614525  0.33229039  0.37540853
   0.16593286  0.33186562  0.87511957
   0.16614525  0.83385475  0.37540853
   0.16593286  0.83406714  0.87511957
   0.66770961  0.83385475  0.37540853
   0.66813438  0.83406714  0.87511957
   0.33271090  0.16635550  0.43772042
   0.33280229  0.16640120  0.93746680
   0.83364450  0.16635550  0.43772042
   0.83359880  0.16640120  0.93746680
   0.83364450  0.66728910  0.43772042
   0.83359880  0.66719771  0.93746680
   0.83302210  0.66604430  0.62477958
   0.50015620  0.49984380 -0.00014078
   0.50002240  0.49997760  0.50003694
   0.50015620  0.00031241 -0.00014078
   0.50002240  0.00004480  0.50003694
  -0.00031241  0.49984380 -0.00014078
  -0.00004480  0.49997760  0.50003694
   0.16651050  0.33302089  0.06264078
   0.16664430  0.33328850  0.56246306
   0.16651050  0.83348950  0.06264078
   0.16664430  0.83335570  0.56246306
   0.66697911  0.83348950  0.06264078
   0.66671150  0.83335570  0.56246306
   0.33386431  0.16693220  0.12503320
   0.33395570  0.16697790  0.62477958
   0.83306780  0.16693220  0.12503320
   0.83302210  0.16697790  0.62477958
  -0.00000000  0.00000000  0.49985770
   0.66666670  0.33333330  0.06128401
   0.66666670  0.33333330  0.56264230
   0.33333330  0.66666670  0.62543087
  -0.00000000  0.00000000  0.18797134
  -0.00000000  0.00000000  0.68909157
   0.66666670  0.33333330  0.24953938
   0.66666670  0.33333330  0.75196386
  -0.00000000  0.00000000  0.31053614
  -0.00000000  0.00000000  0.81296062
   0.66666670  0.33333330  0.37340843
   0.66666670  0.33333330  0.87452866
   0.33333330  0.66666670  0.43706913
  -0.00000000  0.00000000  0.00121599
Test of VASP submission                 
           1
     5.085718   -0.000000   -0.000000
    -2.542859    4.404361   -0.000000
    -0.000000   -0.000000   33.187948
   Al   Ni   Ti
   2  48  14
Direct configuration=     6
   0.33333330  0.66666670  0.93773368
   0.33333330  0.66666670  0.12476632
   0.17259002  0.34517994  0.74950436
   0.49407668 -0.01184664  0.31299564
   0.49421134  0.50578866  0.81243219
   0.49407668  0.50592332  0.31299564
   0.65482006  0.82740998  0.74950436
   0.65508939  0.82754464  0.25006781
   0.17259002  0.82740998  0.74950436
   0.17245536  0.82754464  0.25006781
   0.01184664  0.50592332  0.31299564
   0.17245536  0.34491061  0.25006781
  -0.00121635  0.49939183  0.68706933
  -0.00155266  0.49922367  0.18736861
   0.50060817  0.00121635  0.68706933
   0.50077633  0.00155266  0.18736861
   0.50060817  0.49939183  0.68706933
   0.50077633  0.49922367  0.18736861
   0.49421134 -0.01157731  0.81243219
   0.83305604  0.66611218  0.12503439
   0.01157731  0.50578866  0.81243219
   0.16605853  0.33211695  0.37543067
   0.16589037  0.33178064  0.87513139
   0.16605853  0.83394147  0.37543067
   0.16589037  0.83410963  0.87513139
   0.66788305  0.83394147  0.37543067
   0.66821936  0.83410963  0.87513139
   0.33276423  0.16638217  0.43772629
   0.33277878  0.16638944  0.93746561
   0.83361783  0.16638217  0.43772629
   0.83361056  0.16638944  0.93746561
   0.83361783  0.66723577  0.43772629
   0.83361056  0.66722122  0.93746561
   0.83304877  0.66609763  0.62477371
   0.50015397  0.49984603 -0.00015302
   0.50001555  0.49998445  0.50003825
   0.50015397  0.00030794 -0.00015302
   0.50001555  0.00003110  0.50003825
  -0.00030794  0.49984603 -0.00015302
  -0.00003110  0.49998445  0.50003825
   0.16651273  0.33302536  0.06265302
   0.16665115  0.33330220  0.56246175
   0.16651273  0.83348727  0.06265302
   0.16665115  0.83334885  0.56246175
   0.66697464  0.83348727  0.06265302
   0.66669780  0.83334885  0.56246175
   0.33388782  0.16694396  0.12503439
   0.33390237  0.16695123  0.62477371
   0.83305604  0.16694396  0.12503439
   0.83304877  0.16695123  0.62477371
  -0.00000000  0.00000000  0.49985558
   0.66666670  0.33333330  0.06119691
   0.66666670  0.33333330  0.56264442
   0.33333330  0.66666670  0.62544487
  -0.00000000  0.00000000  0.18801451
  -0.00000000  0.00000000  0.68919256
   0.66666670  0.33333330  0.24953384
   0.66666670  0.33333330  0.75209384
  -0.00000000  0.00000000  0.31040616
  -0.00000000  0.00000000  0.81296616
   0.66666670  0.33333330  0.37330744
   0.66666670  0.33333330  0.87448549
   0.33333330  0.66666670  0.43705513
  -0.00000000  0.00000000  0.00130309
Test of VASP submission                 
           1
     5.084407   -0.000000   -0.000000
    -2.542204    4.403227   -0.000000
    -0.000000   -0.000000   33.179162
   Al   Ni   Ti
   2  48  14
Direct configuration=     7
   0.33333330  0.66666670  0.93771911
   0.33333330  0.66666670  0.12478089
   0.17193397  0.34386784  0.74948335
   0.49473273 -0.01053454  0.31301665
   0.49467888  0.50532112  0.81253622
   0.49473273  0.50526727  0.31301665
   0.65613216  0.82806603  0.74948335
   0.65602446  0.82801218  0.24996378
   0.17193397  0.82806603  0.74948335
   0.17198782  0.82801218  0.24996378
   0.01053454  0.50526727  0.31301665
   0.17198782  0.34397554  0.24996378
  -0.00186523  0.49906739  0.68708711
  -0.00149008  0.49925496  0.18730809
   0.50093261  0.00186523  0.68708711
   0.50074504  0.00149008  0.18730809
   0.50093261  0.49906739  0.68708711
   0.50074504  0.49925496  0.18730809
   0.49467888 -0.01064224  0.81253622
   0.83307224  0.66614458  0.12502320
   0.01064224  0.50532112  0.81253622
   0.16573409  0.33146807  0.37541289
   0.16592166  0.33184322  0.87519191
   0.16573409  0.83426591  0.37541289
   0.16592166  0.83407834  0.87519191
   0.66853193  0.83426591  0.37541289
   0.66815678  0.83407834  0.87519191
   0.33331695  0.16665853  0.43768168
   0.33281118  0.16640564  0.93747680
   0.83334147  0.16665853  0.43768168
   0.83359436  0.16640564  0.93747680
   0.83334147  0.66668305  0.43768168
   0.83359436  0.66718882  0.93747680
   0.83332513  0.66665035  0.62481832
   0.49998432  0.50001568 -0.00021994
   0.49998065  0.50001935  0.50003540
   0.49998432 -0.00003136 -0.00021994
   0.49998065 -0.00003870  0.50003540
   0.00003136  0.50001568 -0.00021994
   0.00003870  0.50001935  0.50003540
   0.16668238  0.33336466  0.06271994
   0.16668605  0.33337200  0.56246460
   0.16668238  0.83331762  0.06271994
   0.16668605  0.83331395  0.56246460
   0.66663534  0.83331762  0.06271994
   0.66662800  0.83331395  0.56246460
   0.33385542  0.16692776  0.12502320
   0.33334965  0.16667487  0.62481832
   0.83307224  0.16692776  0.12502320
   0.83332513  0.16667487  0.62481832
  -0.00000000  0.00000000  0.49986126
   0.66666670  0.33333330  0.06108199
   0.66666670  0.33333330  0.56263874
   0.33333330  0.66666670  0.62539085
  -0.00000000  0.00000000  0.18806339
  -0.00000000  0.00000000  0.68920521
   0.66666670  0.33333330  0.24967412
   0.66666670  0.33333330  0.75222243
  -0.00000000  0.00000000  0.31027757
  -0.00000000  0.00000000  0.81282588
   0.66666670  0.33333330  0.37329479
   0.66666670  0.33333330  0.87443661
   0.33333330  0.66666670  0.43710915
  -0.00000000  0.00000000  0.00141801
Test of VASP submission                 
           1
     5.084407   -0.000000   -0.000000
    -2.542204    4.403227   -0.000000
    -0.000000   -0.000000   33.179162
   Al   Ni   Ti
   2  48  14
Direct configuration=     8
   0.33333330  0.66666670  0.93771368
   0.33333330  0.66666670  0.12478632
   0.17168941  0.34337871  0.74947552
   0.49497729 -0.01004541  0.31302448
   0.49485317  0.50514683  0.81257500
   0.49497729  0.50502271  0.31302448
   0.65662129  0.82831059  0.74947552
   0.65637304  0.82818647  0.24992500
   0.17168941  0.82831059  0.74947552
   0.17181353  0.82818647  0.24992500
   0.01004541  0.50502271  0.31302448
   0.17181353  0.34362696  0.24992500
  -0.00210712  0.49894644  0.68709374
  -0.00146674  0.49926663  0.18728553
   0.50105356  0.00210712  0.68709374
   0.50073337  0.00146674  0.18728553
   0.50105356  0.49894644  0.68709374
   0.50073337  0.49926663  0.18728553
   0.49485317 -0.01029366  0.81257500
   0.83307828  0.66615666  0.12501903
   0.01029366  0.50514683  0.81257500
   0.16561314  0.33122618  0.37540626
   0.16593333  0.33186656  0.87521447
   0.16561314  0.83438686  0.37540626
   0.16593333  0.83406667  0.87521447
   0.66877382  0.83438686  0.37540626
   0.66813344  0.83406667  0.87521447
   0.33352300  0.16676155  0.43766505
   0.33282326  0.16641168  0.93748097
   0.83323845  0.16676155  0.43766505
   0.83358832  0.16641168  0.93748097
   0.83323845  0.66647700  0.43766505
   0.83358832  0.66717674  0.93748097
   0.83342815  0.66685640  0.62483495
   0.49992108  0.50007892 -0.00024488
   0.49996764  0.50003236  0.50003433
   0.49992108 -0.00015785 -0.00024488
   0.49996764 -0.00006472  0.50003433
   0.00015785  0.50007892 -0.00024488
   0.00006472  0.50003236  0.50003433
   0.16674562  0.33349115  0.06274488
   0.16669906  0.33339802  0.56246567
   0.16674562  0.83325438  0.06274488
   0.16669906  0.83330094  0.56246567
   0.66650885  0.83325438  0.06274488
   0.66660198  0.83330094  0.56246567
   0.33384334  0.16692172  0.12501903
   0.33314360  0.16657185  0.62483495
   0.83307828  0.16692172  0.12501903
   0.83342815  0.16657185  0.62483495
  -0.00000000  0.00000000  0.49986338
   0.66666670  0.33333330  0.06103915
   0.66666670  0.33333330  0.56263662
   0.33333330  0.66666670  0.62537071
  -0.00000000  0.00000000  0.18808161
  -0.00000000  0.00000000  0.68920993
   0.66666670  0.33333330  0.24972641
   0.66666670  0.33333330  0.75227037
  -0.00000000  0.00000000  0.31022963
  -0.00000000  0.00000000  0.81277359
   0.66666670  0.33333330  0.37329007
   0.66666670  0.33333330  0.87441839
   0.33333330  0.66666670  0.43712929
  -0.00000000  0.00000000  0.00146085
