  64  64   0   0
  0.1159262E+02  0.5082226E-09  0.5082226E-09  0.3316828E-08  0.5000000E-15
  1.000000000000000E-004
  CAR 
 Test of VASP submission                 
     18.25501837    -50.67134261  301      9.83760657      1.00000000
    -50.671  0.0000E+00  0.0000E+00  0.0000E+00  0.0000E+00
    -50.442  0.0000E+00  0.0000E+00  0.0000E+00  0.0000E+00
    -50.212  0.0000E+00  0.0000E+00  0.0000E+00  0.0000E+00
    -49.982  0.0000E+00  0.0000E+00  0.0000E+00  0.0000E+00
    -49.752  0.0000E+00  0.0000E+00  0.0000E+00  0.0000E+00
    -49.523  0.0000E+00  0.0000E+00  0.0000E+00  0.0000E+00
    -49.293 -0.1189E-33 -0.1175E-33 -0.2731E-34 -0.2700E-34
    -49.063 -0.1662E-25 -0.1646E-25 -0.3819E-26 -0.3782E-26
    -48.833 -0.1638E-18 -0.1624E-18 -0.3763E-19 -0.3732E-19
    -48.604 -0.1091E-12 -0.1084E-12 -0.2507E-13 -0.2490E-13
    -48.374 -0.5096E-08 -0.5069E-08 -0.1171E-08 -0.1165E-08
    -48.144 -0.1567E-04 -0.1561E-04 -0.3601E-05 -0.3588E-05
    -47.914 -0.2790E-02 -0.2785E-02 -0.6447E-03 -0.6435E-03
    -47.685 -0.2950E-02 -0.2996E-02 -0.1322E-02 -0.1332E-02
    -47.455  0.2703E+00  0.2702E+00  0.6078E-01  0.6074E-01
    -47.225  0.4959E+00  0.4961E+00  0.1747E+00  0.1747E+00
    -46.995  0.2203E+00  0.2203E+00  0.2253E+00  0.2253E+00
    -46.766 -0.1203E-01 -0.1205E-01  0.2226E+00  0.2226E+00
    -46.536 -0.1494E-02 -0.1493E-02  0.2222E+00  0.2222E+00
    -46.306 -0.5575E-05 -0.5565E-05  0.2222E+00  0.2222E+00
    -46.076 -0.1334E-08 -0.1330E-08  0.2222E+00  0.2222E+00
    -45.846 -0.2172E-13 -0.2164E-13  0.2222E+00  0.2222E+00
    -45.617  0.0000E+00  0.0000E+00  0.2222E+00  0.2222E+00
    -45.387  0.0000E+00  0.0000E+00  0.2222E+00  0.2222E+00
    -45.157  0.0000E+00  0.0000E+00  0.2222E+00  0.2222E+00
    -44.927  0.0000E+00  0.0000E+00  0.2222E+00  0.2222E+00
    -44.698  0.0000E+00  0.0000E+00  0.2222E+00  0.2222E+00
    -44.468  0.0000E+00  0.0000E+00  0.2222E+00  0.2222E+00
    -44.238  0.0000E+00  0.0000E+00  0.2222E+00  0.2222E+00
    -44.008  0.0000E+00  0.0000E+00  0.2222E+00  0.2222E+00
    -43.779  0.0000E+00  0.0000E+00  0.2222E+00  0.2222E+00
    -43.549  0.0000E+00  0.0000E+00  0.2222E+00  0.2222E+00
    -43.319  0.0000E+00  0.0000E+00  0.2222E+00  0.2222E+00
    -43.089  0.0000E+00  0.0000E+00  0.2222E+00  0.2222E+00
    -42.860  0.0000E+00  0.0000E+00  0.2222E+00  0.2222E+00
    -42.630  0.0000E+00  0.0000E+00  0.2222E+00  0.2222E+00
    -42.400  0.0000E+00  0.0000E+00  0.2222E+00  0.2222E+00
    -42.170  0.0000E+00  0.0000E+00  0.2222E+00  0.2222E+00
    -41.941  0.0000E+00  0.0000E+00  0.2222E+00  0.2222E+00
    -41.711  0.0000E+00  0.0000E+00  0.2222E+00  0.2222E+00
    -41.481  0.0000E+00  0.0000E+00  0.2222E+00  0.2222E+00
    -41.251  0.0000E+00  0.0000E+00  0.2222E+00  0.2222E+00
    -41.022  0.0000E+00  0.0000E+00  0.2222E+00  0.2222E+00
    -40.792  0.0000E+00  0.0000E+00  0.2222E+00  0.2222E+00
    -40.562  0.0000E+00  0.0000E+00  0.2222E+00  0.2222E+00
    -40.332  0.0000E+00  0.0000E+00  0.2222E+00  0.2222E+00
    -40.103  0.0000E+00  0.0000E+00  0.2222E+00  0.2222E+00
    -39.873  0.0000E+00  0.0000E+00  0.2222E+00  0.2222E+00
    -39.643  0.0000E+00  0.0000E+00  0.2222E+00  0.2222E+00
    -39.413  0.0000E+00  0.0000E+00  0.2222E+00  0.2222E+00
    -39.184  0.0000E+00  0.0000E+00  0.2222E+00  0.2222E+00
    -38.954  0.0000E+00  0.0000E+00  0.2222E+00  0.2222E+00
    -38.724  0.0000E+00  0.0000E+00  0.2222E+00  0.2222E+00
    -38.494  0.0000E+00  0.0000E+00  0.2222E+00  0.2222E+00
    -38.265  0.0000E+00  0.0000E+00  0.2222E+00  0.2222E+00
    -38.035  0.0000E+00  0.0000E+00  0.2222E+00  0.2222E+00
    -37.805  0.0000E+00  0.0000E+00  0.2222E+00  0.2222E+00
    -37.575  0.0000E+00  0.0000E+00  0.2222E+00  0.2222E+00
    -37.346  0.0000E+00  0.0000E+00  0.2222E+00  0.2222E+00
    -37.116  0.0000E+00  0.0000E+00  0.2222E+00  0.2222E+00
    -36.886  0.0000E+00  0.0000E+00  0.2222E+00  0.2222E+00
    -36.656  0.0000E+00  0.0000E+00  0.2222E+00  0.2222E+00
    -36.427  0.0000E+00  0.0000E+00  0.2222E+00  0.2222E+00
    -36.197  0.0000E+00  0.0000E+00  0.2222E+00  0.2222E+00
    -35.967  0.0000E+00  0.0000E+00  0.2222E+00  0.2222E+00
    -35.737  0.0000E+00  0.0000E+00  0.2222E+00  0.2222E+00
    -35.508  0.0000E+00  0.0000E+00  0.2222E+00  0.2222E+00
    -35.278  0.0000E+00  0.0000E+00  0.2222E+00  0.2222E+00
    -35.048  0.0000E+00  0.0000E+00  0.2222E+00  0.2222E+00
    -34.818  0.0000E+00  0.0000E+00  0.2222E+00  0.2222E+00
    -34.589  0.0000E+00  0.0000E+00  0.2222E+00  0.2222E+00
    -34.359  0.0000E+00  0.0000E+00  0.2222E+00  0.2222E+00
    -34.129  0.0000E+00  0.0000E+00  0.2222E+00  0.2222E+00
    -33.899  0.0000E+00  0.0000E+00  0.2222E+00  0.2222E+00
    -33.670  0.0000E+00  0.0000E+00  0.2222E+00  0.2222E+00
    -33.440  0.0000E+00  0.0000E+00  0.2222E+00  0.2222E+00
    -33.210  0.0000E+00  0.0000E+00  0.2222E+00  0.2222E+00
    -32.980  0.0000E+00  0.0000E+00  0.2222E+00  0.2222E+00
    -32.750  0.0000E+00  0.0000E+00  0.2222E+00  0.2222E+00
    -32.521  0.0000E+00  0.0000E+00  0.2222E+00  0.2222E+00
    -32.291  0.0000E+00  0.0000E+00  0.2222E+00  0.2222E+00
    -32.061  0.0000E+00  0.0000E+00  0.2222E+00  0.2222E+00
    -31.831  0.0000E+00  0.0000E+00  0.2222E+00  0.2222E+00
    -31.602  0.0000E+00  0.0000E+00  0.2222E+00  0.2222E+00
    -31.372  0.0000E+00  0.0000E+00  0.2222E+00  0.2222E+00
    -31.142  0.0000E+00  0.0000E+00  0.2222E+00  0.2222E+00
    -30.912  0.0000E+00  0.0000E+00  0.2222E+00  0.2222E+00
    -30.683  0.0000E+00  0.0000E+00  0.2222E+00  0.2222E+00
    -30.453  0.0000E+00  0.0000E+00  0.2222E+00  0.2222E+00
    -30.223  0.0000E+00  0.0000E+00  0.2222E+00  0.2222E+00
    -29.993  0.0000E+00  0.0000E+00  0.2222E+00  0.2222E+00
    -29.764  0.0000E+00  0.0000E+00  0.2222E+00  0.2222E+00
    -29.534  0.0000E+00  0.0000E+00  0.2222E+00  0.2222E+00
    -29.304  0.0000E+00  0.0000E+00  0.2222E+00  0.2222E+00
    -29.074  0.0000E+00  0.0000E+00  0.2222E+00  0.2222E+00
    -28.845  0.0000E+00  0.0000E+00  0.2222E+00  0.2222E+00
    -28.615  0.0000E+00  0.0000E+00  0.2222E+00  0.2222E+00
    -28.385  0.0000E+00  0.0000E+00  0.2222E+00  0.2222E+00
    -28.155  0.0000E+00  0.0000E+00  0.2222E+00  0.2222E+00
    -27.926  0.0000E+00  0.0000E+00  0.2222E+00  0.2222E+00
    -27.696  0.0000E+00  0.0000E+00  0.2222E+00  0.2222E+00
    -27.466  0.0000E+00  0.0000E+00  0.2222E+00  0.2222E+00
    -27.236  0.0000E+00  0.0000E+00  0.2222E+00  0.2222E+00
    -27.007  0.0000E+00  0.0000E+00  0.2222E+00  0.2222E+00
    -26.777  0.0000E+00  0.0000E+00  0.2222E+00  0.2222E+00
    -26.547  0.0000E+00  0.0000E+00  0.2222E+00  0.2222E+00
    -26.317  0.0000E+00  0.0000E+00  0.2222E+00  0.2222E+00
    -26.088  0.0000E+00  0.0000E+00  0.2222E+00  0.2222E+00
    -25.858  0.0000E+00  0.0000E+00  0.2222E+00  0.2222E+00
    -25.628 -0.2630E-35 -0.2594E-35  0.2222E+00  0.2222E+00
    -25.398 -0.6758E-27 -0.6677E-27  0.2222E+00  0.2222E+00
    -25.169 -0.1195E-19 -0.1183E-19  0.2222E+00  0.2222E+00
    -24.939 -0.1455E-13 -0.1443E-13  0.2222E+00  0.2222E+00
    -24.709 -0.1269E-08 -0.1260E-08  0.2222E+00  0.2222E+00
    -24.479 -0.7546E-05 -0.7510E-05  0.2222E+00  0.2222E+00
    -24.250 -0.2817E-02 -0.2809E-02  0.2216E+00  0.2216E+00
    -24.020 -0.3633E-01 -0.3636E-01  0.2132E+00  0.2132E+00
    -23.790  0.4934E+00  0.4927E+00  0.3266E+00  0.3264E+00
    -23.560  0.1417E+01  0.1418E+01  0.6522E+00  0.6522E+00
    -23.331  0.1017E+01  0.1017E+01  0.8859E+00  0.8859E+00
    -23.101  0.2623E-01  0.2612E-01  0.8919E+00  0.8919E+00
    -22.871 -0.1316E-01 -0.1316E-01  0.8889E+00  0.8889E+00
    -22.641 -0.1192E-03 -0.1190E-03  0.8889E+00  0.8889E+00
    -22.412 -0.6587E-07 -0.6568E-07  0.8889E+00  0.8889E+00
    -22.182 -0.2505E-11 -0.2496E-11  0.8889E+00  0.8889E+00
    -21.952  0.0000E+00  0.0000E+00  0.8889E+00  0.8889E+00
    -21.722  0.0000E+00  0.0000E+00  0.8889E+00  0.8889E+00
    -21.493  0.0000E+00  0.0000E+00  0.8889E+00  0.8889E+00
    -21.263  0.0000E+00  0.0000E+00  0.8889E+00  0.8889E+00
    -21.033  0.0000E+00  0.0000E+00  0.8889E+00  0.8889E+00
    -20.803  0.0000E+00  0.0000E+00  0.8889E+00  0.8889E+00
    -20.573  0.0000E+00  0.0000E+00  0.8889E+00  0.8889E+00
    -20.344  0.0000E+00  0.0000E+00  0.8889E+00  0.8889E+00
    -20.114  0.0000E+00  0.0000E+00  0.8889E+00  0.8889E+00
    -19.884  0.0000E+00  0.0000E+00  0.8889E+00  0.8889E+00
    -19.654  0.0000E+00  0.0000E+00  0.8889E+00  0.8889E+00
    -19.425  0.0000E+00  0.0000E+00  0.8889E+00  0.8889E+00
    -19.195  0.0000E+00  0.0000E+00  0.8889E+00  0.8889E+00
    -18.965  0.0000E+00  0.0000E+00  0.8889E+00  0.8889E+00
    -18.735  0.0000E+00  0.0000E+00  0.8889E+00  0.8889E+00
    -18.506  0.0000E+00  0.0000E+00  0.8889E+00  0.8889E+00
    -18.276  0.0000E+00  0.0000E+00  0.8889E+00  0.8889E+00
    -18.046  0.0000E+00  0.0000E+00  0.8889E+00  0.8889E+00
    -17.816  0.0000E+00  0.0000E+00  0.8889E+00  0.8889E+00
    -17.587  0.0000E+00  0.0000E+00  0.8889E+00  0.8889E+00
    -17.357  0.0000E+00  0.0000E+00  0.8889E+00  0.8889E+00
    -17.127  0.0000E+00  0.0000E+00  0.8889E+00  0.8889E+00
    -16.897  0.0000E+00  0.0000E+00  0.8889E+00  0.8889E+00
    -16.668  0.0000E+00  0.0000E+00  0.8889E+00  0.8889E+00
    -16.438  0.0000E+00  0.0000E+00  0.8889E+00  0.8889E+00
    -16.208  0.0000E+00  0.0000E+00  0.8889E+00  0.8889E+00
    -15.978  0.0000E+00  0.0000E+00  0.8889E+00  0.8889E+00
    -15.749  0.0000E+00  0.0000E+00  0.8889E+00  0.8889E+00
    -15.519  0.0000E+00  0.0000E+00  0.8889E+00  0.8889E+00
    -15.289  0.0000E+00  0.0000E+00  0.8889E+00  0.8889E+00
    -15.059  0.0000E+00  0.0000E+00  0.8889E+00  0.8889E+00
    -14.830  0.0000E+00  0.0000E+00  0.8889E+00  0.8889E+00
    -14.600  0.0000E+00  0.0000E+00  0.8889E+00  0.8889E+00
    -14.370  0.0000E+00  0.0000E+00  0.8889E+00  0.8889E+00
    -14.140  0.0000E+00  0.0000E+00  0.8889E+00  0.8889E+00
    -13.911  0.0000E+00  0.0000E+00  0.8889E+00  0.8889E+00
    -13.681  0.0000E+00  0.0000E+00  0.8889E+00  0.8889E+00
    -13.451  0.0000E+00  0.0000E+00  0.8889E+00  0.8889E+00
    -13.221  0.0000E+00  0.0000E+00  0.8889E+00  0.8889E+00
    -12.992  0.0000E+00  0.0000E+00  0.8889E+00  0.8889E+00
    -12.762  0.0000E+00  0.0000E+00  0.8889E+00  0.8889E+00
    -12.532  0.0000E+00  0.0000E+00  0.8889E+00  0.8889E+00
    -12.302  0.0000E+00  0.0000E+00  0.8889E+00  0.8889E+00
    -12.073  0.0000E+00  0.0000E+00  0.8889E+00  0.8889E+00
    -11.843  0.0000E+00  0.0000E+00  0.8889E+00  0.8889E+00
    -11.613  0.0000E+00  0.0000E+00  0.8889E+00  0.8889E+00
    -11.383  0.0000E+00  0.0000E+00  0.8889E+00  0.8889E+00
    -11.154  0.0000E+00  0.0000E+00  0.8889E+00  0.8889E+00
    -10.924  0.0000E+00  0.0000E+00  0.8889E+00  0.8889E+00
    -10.694  0.0000E+00  0.0000E+00  0.8889E+00  0.8889E+00
    -10.464  0.0000E+00  0.0000E+00  0.8889E+00  0.8889E+00
    -10.235  0.0000E+00  0.0000E+00  0.8889E+00  0.8889E+00
    -10.005  0.0000E+00  0.0000E+00  0.8889E+00  0.8889E+00
     -9.775  0.0000E+00  0.0000E+00  0.8889E+00  0.8889E+00
     -9.545  0.0000E+00  0.0000E+00  0.8889E+00  0.8889E+00
     -9.316  0.0000E+00  0.0000E+00  0.8889E+00  0.8889E+00
     -9.086  0.0000E+00  0.0000E+00  0.8889E+00  0.8889E+00
     -8.856  0.0000E+00  0.0000E+00  0.8889E+00  0.8889E+00
     -8.626  0.0000E+00  0.0000E+00  0.8889E+00  0.8889E+00
     -8.397  0.0000E+00  0.0000E+00  0.8889E+00  0.8889E+00
     -8.167  0.0000E+00  0.0000E+00  0.8889E+00  0.8889E+00
     -7.937  0.0000E+00  0.0000E+00  0.8889E+00  0.8889E+00
     -7.707  0.0000E+00  0.0000E+00  0.8889E+00  0.8889E+00
     -7.477  0.0000E+00  0.0000E+00  0.8889E+00  0.8889E+00
     -7.248  0.0000E+00  0.0000E+00  0.8889E+00  0.8889E+00
     -7.018  0.0000E+00  0.0000E+00  0.8889E+00  0.8889E+00
     -6.788  0.0000E+00  0.0000E+00  0.8889E+00  0.8889E+00
     -6.558  0.0000E+00  0.0000E+00  0.8889E+00  0.8889E+00
     -6.329  0.0000E+00  0.0000E+00  0.8889E+00  0.8889E+00
     -6.099  0.0000E+00  0.0000E+00  0.8889E+00  0.8889E+00
     -5.869  0.0000E+00  0.0000E+00  0.8889E+00  0.8889E+00
     -5.639  0.0000E+00  0.0000E+00  0.8889E+00  0.8889E+00
     -5.410  0.0000E+00  0.0000E+00  0.8889E+00  0.8889E+00
     -5.180  0.0000E+00  0.0000E+00  0.8889E+00  0.8889E+00
     -4.950  0.0000E+00  0.0000E+00  0.8889E+00  0.8889E+00
     -4.720  0.0000E+00  0.0000E+00  0.8889E+00  0.8889E+00
     -4.491  0.0000E+00  0.0000E+00  0.8889E+00  0.8889E+00
     -4.261  0.0000E+00  0.0000E+00  0.8889E+00  0.8889E+00
     -4.031  0.0000E+00  0.0000E+00  0.8889E+00  0.8889E+00
     -3.801  0.0000E+00  0.0000E+00  0.8889E+00  0.8889E+00
     -3.572  0.0000E+00  0.0000E+00  0.8889E+00  0.8889E+00
     -3.342  0.0000E+00  0.0000E+00  0.8889E+00  0.8889E+00
     -3.112  0.0000E+00  0.0000E+00  0.8889E+00  0.8889E+00
     -2.882  0.0000E+00  0.0000E+00  0.8889E+00  0.8889E+00
     -2.653  0.0000E+00  0.0000E+00  0.8889E+00  0.8889E+00
     -2.423  0.0000E+00  0.0000E+00  0.8889E+00  0.8889E+00
     -2.193  0.0000E+00  0.0000E+00  0.8889E+00  0.8889E+00
     -1.963  0.0000E+00  0.0000E+00  0.8889E+00  0.8889E+00
     -1.734  0.0000E+00  0.0000E+00  0.8889E+00  0.8889E+00
     -1.504  0.0000E+00  0.0000E+00  0.8889E+00  0.8889E+00
     -1.274  0.0000E+00  0.0000E+00  0.8889E+00  0.8889E+00
     -1.044  0.0000E+00  0.0000E+00  0.8889E+00  0.8889E+00
     -0.815 -0.7755E-36 -0.7835E-36  0.8889E+00  0.8889E+00
     -0.585 -0.1049E-27 -0.1058E-27  0.8889E+00  0.8889E+00
     -0.355 -0.1015E-20 -0.1023E-20  0.8889E+00  0.8889E+00
     -0.125 -0.6777E-15 -0.6819E-15  0.8889E+00  0.8889E+00
      0.104 -0.3277E-10 -0.3293E-10  0.8889E+00  0.8889E+00
      0.334 -0.1103E-06 -0.1107E-06  0.8889E+00  0.8889E+00
      0.564 -0.2413E-04 -0.2418E-04  0.8889E+00  0.8889E+00
      0.794 -0.1627E-03 -0.1625E-03  0.8888E+00  0.8888E+00
      1.023  0.2834E-02  0.2837E-02  0.8895E+00  0.8895E+00
      1.253  0.1052E-01  0.1052E-01  0.8919E+00  0.8919E+00
      1.483  0.1955E-01  0.1954E-01  0.8964E+00  0.8964E+00
      1.713  0.2608E-01  0.2607E-01  0.9024E+00  0.9024E+00
      1.942  0.3172E-01  0.3172E-01  0.9097E+00  0.9097E+00
      2.172  0.3811E-01  0.3811E-01  0.9184E+00  0.9184E+00
      2.402  0.4657E-01  0.4657E-01  0.9291E+00  0.9291E+00
      2.632  0.5548E-01  0.5548E-01  0.9419E+00  0.9419E+00
      2.861  0.4862E-01  0.4861E-01  0.9531E+00  0.9531E+00
      3.091  0.4187E-01  0.4186E-01  0.9627E+00  0.9627E+00
      3.321  0.4926E-01  0.4926E-01  0.9740E+00  0.9740E+00
      3.551  0.6542E-01  0.6542E-01  0.9890E+00  0.9890E+00
      3.780  0.8132E-01  0.8132E-01  0.1008E+01  0.1008E+01
      4.010  0.8607E-01  0.8606E-01  0.1027E+01  0.1027E+01
      4.240  0.9237E-01  0.9237E-01  0.1049E+01  0.1049E+01
      4.470  0.1043E+00  0.1043E+00  0.1073E+01  0.1073E+01
      4.700  0.1208E+00  0.1207E+00  0.1100E+01  0.1100E+01
      4.929  0.1437E+00  0.1437E+00  0.1133E+01  0.1133E+01
      5.159  0.2060E+00  0.2060E+00  0.1181E+01  0.1181E+01
      5.389  0.3189E+00  0.3188E+00  0.1254E+01  0.1254E+01
      5.619  0.3788E+00  0.3788E+00  0.1341E+01  0.1341E+01
      5.848  0.4365E+00  0.4365E+00  0.1441E+01  0.1441E+01
      6.078  0.5359E+00  0.5359E+00  0.1564E+01  0.1564E+01
      6.308  0.7256E+00  0.7256E+00  0.1731E+01  0.1731E+01
      6.538  0.8577E+00  0.8577E+00  0.1928E+01  0.1928E+01
      6.767  0.9799E+00  0.9799E+00  0.2153E+01  0.2153E+01
      6.997  0.8940E+00  0.8940E+00  0.2359E+01  0.2359E+01
      7.227  0.9397E+00  0.9396E+00  0.2575E+01  0.2575E+01
      7.457  0.1033E+01  0.1033E+01  0.2812E+01  0.2812E+01
      7.686  0.1097E+01  0.1097E+01  0.3064E+01  0.3064E+01
      7.916  0.1321E+01  0.1321E+01  0.3367E+01  0.3367E+01
      8.146  0.1346E+01  0.1346E+01  0.3677E+01  0.3677E+01
      8.376  0.1381E+01  0.1381E+01  0.3994E+01  0.3994E+01
      8.605  0.1292E+01  0.1292E+01  0.4291E+01  0.4291E+01
      8.835  0.1258E+01  0.1258E+01  0.4580E+01  0.4580E+01
      9.065  0.9726E+00  0.9726E+00  0.4803E+01  0.4803E+01
      9.295  0.8198E+00  0.8198E+00  0.4992E+01  0.4992E+01
      9.524  0.5448E+00  0.5448E+00  0.5117E+01  0.5117E+01
      9.754  0.2770E+00  0.2770E+00  0.5181E+01  0.5181E+01
      9.984  0.8035E-01  0.8036E-01  0.5199E+01  0.5199E+01
     10.214  0.1313E+00  0.1312E+00  0.5229E+01  0.5229E+01
     10.443  0.3133E+00  0.3131E+00  0.5301E+01  0.5301E+01
     10.673  0.8165E+00  0.8165E+00  0.5489E+01  0.5489E+01
     10.903  0.9622E+00  0.9623E+00  0.5710E+01  0.5710E+01
     11.133  0.6899E+00  0.6900E+00  0.5868E+01  0.5868E+01
     11.362  0.4305E+00  0.4305E+00  0.5967E+01  0.5967E+01
     11.592  0.3987E+00  0.3986E+00  0.6059E+01  0.6059E+01
     11.822  0.3797E+00  0.3796E+00  0.6146E+01  0.6146E+01
     12.052  0.3139E+00  0.3140E+00  0.6218E+01  0.6218E+01
     12.281  0.2190E+00  0.2190E+00  0.6269E+01  0.6269E+01
     12.511  0.1803E+00  0.1803E+00  0.6310E+01  0.6310E+01
     12.741  0.1721E+00  0.1722E+00  0.6349E+01  0.6349E+01
     12.971  0.1710E+00  0.1711E+00  0.6389E+01  0.6389E+01
     13.200  0.1545E+00  0.1547E+00  0.6424E+01  0.6424E+01
     13.430  0.1753E+00  0.1754E+00  0.6465E+01  0.6465E+01
     13.660  0.1763E+00  0.1760E+00  0.6505E+01  0.6505E+01
     13.890  0.1435E+00  0.1442E+00  0.6538E+01  0.6538E+01
     14.119  0.1169E+00  0.1170E+00  0.6565E+01  0.6565E+01
     14.349  0.8385E-01  0.8312E-01  0.6584E+01  0.6584E+01
     14.579  0.5054E-01  0.5171E-01  0.6596E+01  0.6596E+01
     14.809  0.2188E-01  0.2122E-01  0.6601E+01  0.6601E+01
     15.038  0.9121E-02  0.8544E-02  0.6603E+01  0.6603E+01
     15.268  0.1452E-02  0.1195E-02  0.6603E+01  0.6603E+01
     15.498 -0.1635E-03 -0.1174E-03  0.6603E+01  0.6603E+01
     15.728 -0.1002E-04 -0.1109E-04  0.6603E+01  0.6603E+01
     15.957 -0.3314E-07 -0.5950E-07  0.6603E+01  0.6603E+01
     16.187 -0.7519E-11 -0.2077E-10  0.6603E+01  0.6603E+01
     16.417 -0.1187E-15 -0.4831E-15  0.6603E+01  0.6603E+01
     16.647  0.0000E+00  0.0000E+00  0.6603E+01  0.6603E+01
     16.876  0.0000E+00  0.0000E+00  0.6603E+01  0.6603E+01
     17.106  0.0000E+00  0.0000E+00  0.6603E+01  0.6603E+01
     17.336  0.0000E+00  0.0000E+00  0.6603E+01  0.6603E+01
     17.566  0.0000E+00  0.0000E+00  0.6603E+01  0.6603E+01
     17.796  0.0000E+00  0.0000E+00  0.6603E+01  0.6603E+01
     18.025  0.0000E+00  0.0000E+00  0.6603E+01  0.6603E+01
     18.255  0.0000E+00  0.0000E+00  0.6603E+01  0.6603E+01
