   64   64   63    2
  0.1159262E+02  0.5082225E-09  0.5082226E-09  0.3316828E-08  0.5000000E-15
  1.000000000000000E-004
  CAR 
 Test of VASP submission                 
    654    121    416
 
  0.0000000E+00  0.0000000E+00  0.0000000E+00  0.8333333E-03
    1      -47.538239    -47.538107   1.000000   1.000000
    2      -47.534372    -47.534241   1.000000   1.000000
    3      -47.512562    -47.512446   1.000000   1.000000
    4      -47.512463    -47.512346   1.000000   1.000000
    5      -47.412272    -47.412181   1.000000   1.000000
    6      -47.412182    -47.412090   1.000000   1.000000
    7      -47.354407    -47.354351   1.000000   1.000000
    8      -47.354328    -47.354273   1.000000   1.000000
    9      -47.262066    -47.262053   1.000000   1.000000
   10      -47.261723    -47.261710   1.000000   1.000000
   11      -47.240392    -47.240416   1.000000   1.000000
   12      -47.239925    -47.239949   1.000000   1.000000
   13      -47.172884    -47.172955   1.000000   1.000000
   14      -47.167761    -47.167832   1.000000   1.000000
   15      -23.817139    -23.816985   1.000000   1.000000
   16      -23.817134    -23.816981   1.000000   1.000000
   17      -23.813128    -23.812973   1.000000   1.000000
   18      -23.802347    -23.802197   1.000000   1.000000
   19      -23.802343    -23.802193   1.000000   1.000000
   20      -23.799196    -23.799044   1.000000   1.000000
   21      -23.782910    -23.782772   1.000000   1.000000
   22      -23.782906    -23.782768   1.000000   1.000000
   23      -23.779700    -23.779558   1.000000   1.000000
   24      -23.779696    -23.779554   1.000000   1.000000
   25      -23.774440    -23.774303   1.000000   1.000000
   26      -23.770122    -23.769981   1.000000   1.000000
   27      -23.690295    -23.690188   1.000000   1.000000
   28      -23.690290    -23.690183   1.000000   1.000000
   29      -23.690285    -23.690178   1.000000   1.000000
   30      -23.690280    -23.690174   1.000000   1.000000
   31      -23.665927    -23.665820   1.000000   1.000000
   32      -23.665906    -23.665799   1.000000   1.000000
   33      -23.634026    -23.633961   1.000000   1.000000
   34      -23.634023    -23.633958   1.000000   1.000000
   35      -23.633952    -23.633886   1.000000   1.000000
   36      -23.633949    -23.633883   1.000000   1.000000
   37      -23.599611    -23.599546   1.000000   1.000000
   38      -23.599533    -23.599468   1.000000   1.000000
   39      -23.550118    -23.550103   1.000000   1.000000
   40      -23.550114    -23.550100   1.000000   1.000000
   41      -23.549771    -23.549757   1.000000   1.000000
   42      -23.549768    -23.549753   1.000000   1.000000
   43      -23.515142    -23.515166   1.000000   1.000000
   44      -23.515140    -23.515163   1.000000   1.000000
   45      -23.514700    -23.514724   1.000000   1.000000
   46      -23.514698    -23.514721   1.000000   1.000000
   47      -23.499742    -23.499746   1.000000   1.000000
   48      -23.499352    -23.499357   1.000000   1.000000
   49      -23.480507    -23.480513   1.000000   1.000000
   50      -23.480113    -23.480119   1.000000   1.000000
   51      -23.453493    -23.453574   1.000000   1.000000
   52      -23.453491    -23.453572   1.000000   1.000000
   53      -23.441279    -23.441361   1.000000   1.000000
   54      -23.430466    -23.430547   1.000000   1.000000
   55      -23.430464    -23.430545   1.000000   1.000000
   56      -23.421405    -23.421487   1.000000   1.000000
   57        0.929962      0.929847   1.000000   1.000000
   58        1.167045      1.166974   1.000000   1.000000
   59        1.301964      1.302275   1.000000   1.000000
   60        1.614761      1.614964   1.000000   1.000000
   61        1.877380      1.877529   1.000000   1.000000
   62        2.389283      2.389437   1.000000   1.000000
   63        2.593109      2.593182   1.000000   1.000000
   64        3.330709      3.330781   1.000000   1.000000
   65        3.351220      3.351345   1.000000   1.000000
   66        4.189446      4.189554   1.000000   1.000000
   67        4.251776      4.251872   1.000000   1.000000
   68        4.854778      4.854886   1.000000   1.000000
   69        4.857669      4.857779   1.000000   1.000000
   70        5.057355      5.057480   1.000000   1.000000
   71        5.080748      5.080914   1.000000   1.000000
   72        5.080748      5.080914   1.000000   1.000000
   73        5.110578      5.110748   1.000000   1.000000
   74        5.110578      5.110748   1.000000   1.000000
   75        5.188369      5.188395   1.000000   1.000000
   76        5.251697      5.251811   1.000000   1.000000
   77        5.251698      5.251811   1.000000   1.000000
   78        5.265392      5.265497   1.000000   1.000000
   79        5.265392      5.265498   1.000000   1.000000
   80        5.390642      5.390711   1.000000   1.000000
   81        5.390643      5.390711   1.000000   1.000000
   82        5.396903      5.396853   1.000000   1.000000
   83        5.438630      5.438713   1.000000   1.000000
   84        5.438630      5.438714   1.000000   1.000000
   85        5.503453      5.503507   1.000000   1.000000
   86        5.503454      5.503508   1.000000   1.000000
   87        5.581631      5.581575   1.000000   1.000000
   88        5.599243      5.599288   1.000000   1.000000
   89        5.599243      5.599288   1.000000   1.000000
   90        5.654005      5.654029   1.000000   1.000000
   91        5.670662      5.670666   1.000000   1.000000
   92        5.670663      5.670667   1.000000   1.000000
   93        5.682265      5.682252   1.000000   1.000000
   94        5.682266      5.682252   1.000000   1.000000
   95        5.684596      5.684639   1.000000   1.000000
   96        5.709497      5.709517   1.000000   1.000000
   97        5.709498      5.709518   1.000000   1.000000
   98        5.732082      5.732185   1.000000   1.000000
   99        5.736385      5.736400   1.000000   1.000000
  100        5.736386      5.736401   1.000000   1.000000
  101        5.789112      5.789200   1.000000   1.000000
  102        5.818587      5.818638   1.000000   1.000000
  103        5.818588      5.818638   1.000000   1.000000
  104        5.820932      5.820992   1.000000   1.000000
  105        5.826049      5.826122   1.000000   1.000000
  106        5.826050      5.826122   1.000000   1.000000
  107        5.902104      5.902154   1.000000   1.000000
  108        5.937203      5.937274   1.000000   1.000000
  109        5.947350      5.947433   1.000000   1.000000
  110        5.947351      5.947433   1.000000   1.000000
  111        5.951593      5.951672   1.000000   1.000000
  112        5.992957      5.992976   1.000000   1.000000
  113        6.017478      6.017516   1.000000   1.000000
  114        6.049506      6.049532   1.000000   1.000000
  115        6.106437      6.106528   1.000000   1.000000
  116        6.111233      6.111295   1.000000   1.000000
  117        6.111233      6.111295   1.000000   1.000000
  118        6.136688      6.136710   1.000000   1.000000
  119        6.144066      6.144054   1.000000   1.000000
  120        6.144067      6.144055   1.000000   1.000000
  121        6.146295      6.146332   1.000000   1.000000
  122        6.207838      6.207896   1.000000   1.000000
  123        6.279796      6.279780   1.000000   1.000000
  124        6.279797      6.279782   1.000000   1.000000
  125        6.301647      6.301629   1.000000   1.000000
  126        6.332209      6.332174   1.000000   1.000000
  127        6.378898      6.378950   1.000000   1.000000
  128        6.378898      6.378950   1.000000   1.000000
  129        6.417914      6.417937   1.000000   1.000000
  130        6.473421      6.473411   1.000000   1.000000
  131        6.553605      6.553620   1.000000   1.000000
  132        6.559557      6.559578   1.000000   1.000000
  133        6.559558      6.559579   1.000000   1.000000
  134        6.564338      6.564346   1.000000   1.000000
  135        6.571859      6.571838   1.000000   1.000000
  136        6.571861      6.571840   1.000000   1.000000
  137        6.645504      6.645513   1.000000   1.000000
  138        6.645505      6.645514   1.000000   1.000000
  139        6.645792      6.645797   1.000000   1.000000
  140        6.651282      6.651293   1.000000   1.000000
  141        6.651282      6.651293   1.000000   1.000000
  142        6.703632      6.703644   1.000000   1.000000
  143        6.703633      6.703646   1.000000   1.000000
  144        6.749434      6.749454   1.000000   1.000000
  145        6.854334      6.854374   1.000000   1.000000
  146        6.864556      6.864604   1.000000   1.000000
  147        6.864556      6.864604   1.000000   1.000000
  148        7.019441      7.019440   1.000000   1.000000
  149        7.074174      7.074144   1.000000   1.000000
  150        7.074177      7.074147   1.000000   1.000000
  151        7.125855      7.125902   1.000000   1.000000
  152        7.157579      7.157625   1.000000   1.000000
  153        7.157580      7.157626   1.000000   1.000000
  154        7.269297      7.269316   1.000000   1.000000
  155        7.269298      7.269316   1.000000   1.000000
  156        7.345039      7.345050   1.000000   1.000000
  157        7.345039      7.345050   1.000000   1.000000
  158        7.356606      7.356623   1.000000   1.000000
  159        7.359922      7.359944   1.000000   1.000000
  160        7.421549      7.421557   1.000000   1.000000
  161        7.421551      7.421558   1.000000   1.000000
  162        7.461030      7.461071   1.000000   1.000000
  163        7.466251      7.466260   1.000000   1.000000
  164        7.466399      7.466443   1.000000   1.000000
  165        7.588965      7.589011   1.000000   1.000000
  166        7.591369      7.591374   1.000000   1.000000
  167        7.598981      7.599006   1.000000   1.000000
  168        7.633596      7.633614   1.000000   1.000000
  169        7.633598      7.633616   1.000000   1.000000
  170        7.657843      7.657859   1.000000   1.000000
  171        7.670437      7.670436   1.000000   1.000000
  172        7.714935      7.714938   1.000000   1.000000
  173        7.720953      7.720978   1.000000   1.000000
  174        7.720953      7.720979   1.000000   1.000000
  175        7.742309      7.742332   1.000000   1.000000
  176        7.742311      7.742333   1.000000   1.000000
  177        7.746855      7.746855   1.000000   1.000000
  178        7.746856      7.746856   1.000000   1.000000
  179        7.751574      7.751589   1.000000   1.000000
  180        7.764060      7.764063   1.000000   1.000000
  181        7.786509      7.786525   1.000000   1.000000
  182        7.786510      7.786526   1.000000   1.000000
  183        7.808677      7.808679   1.000000   1.000000
  184        7.808678      7.808680   1.000000   1.000000
  185        7.820868      7.820873   1.000000   1.000000
  186        7.820869      7.820874   1.000000   1.000000
  187        7.821398      7.821423   1.000000   1.000000
  188        7.844321      7.844329   1.000000   1.000000
  189        7.849521      7.849522   1.000000   1.000000
  190        7.857282      7.857315   1.000000   1.000000
  191        7.857283      7.857316   1.000000   1.000000
  192        7.872192      7.872205   1.000000   1.000000
  193        7.872193      7.872206   1.000000   1.000000
  194        7.904074      7.904075   1.000000   1.000000
  195        7.906130      7.906144   1.000000   1.000000
  196        7.906131      7.906145   1.000000   1.000000
  197        7.915654      7.915674   1.000000   1.000000
  198        7.915655      7.915676   1.000000   1.000000
  199        7.940369      7.940384   1.000000   1.000000
  200        7.949659      7.949674   1.000000   1.000000
  201        7.949660      7.949675   1.000000   1.000000
  202        7.961745      7.961772   1.000000   1.000000
  203        7.961746      7.961772   1.000000   1.000000
  204        7.978703      7.978705   1.000000   1.000000
  205        7.978704      7.978706   1.000000   1.000000
  206        7.979868      7.979879   1.000000   1.000000
  207        7.979869      7.979881   1.000000   1.000000
  208        8.007512      8.007522   1.000000   1.000000
  209        8.023430      8.023438   1.000000   1.000000
  210        8.023431      8.023439   1.000000   1.000000
  211        8.028841      8.028853   1.000000   1.000000
  212        8.028841      8.028853   1.000000   1.000000
  213        8.045867      8.045883   1.000000   1.000000
  214        8.045867      8.045884   1.000000   1.000000
  215        8.077057      8.077078   1.000000   1.000000
  216        8.099440      8.099440   1.000000   1.000000
  217        8.130290      8.130290   1.000000   1.000000
  218        8.139957      8.139976   1.000000   1.000000
  219        8.139959      8.139977   1.000000   1.000000
  220        8.171074      8.171073   1.000000   1.000000
  221        8.171075      8.171074   1.000000   1.000000
  222        8.178043      8.178045   1.000000   1.000000
  223        8.178044      8.178046   1.000000   1.000000
  224        8.183340      8.183337   1.000000   1.000000
  225        8.190979      8.190979   1.000000   1.000000
  226        8.190980      8.190980   1.000000   1.000000
  227        8.195551      8.195610   1.000000   1.000000
  228        8.232227      8.232235   1.000000   1.000000
  229        8.232228      8.232237   1.000000   1.000000
  230        8.261399      8.261409   1.000000   1.000000
  231        8.288934      8.288934   1.000000   1.000000
  232        8.288935      8.288936   1.000000   1.000000
  233        8.292118      8.292110   1.000000   1.000000
  234        8.292119      8.292111   1.000000   1.000000
  235        8.335157      8.335185   1.000000   1.000000
  236        8.335158      8.335185   1.000000   1.000000
  237        8.340149      8.340165   1.000000   1.000000
  238        8.340149      8.340165   1.000000   1.000000
  239        8.427096      8.427119   1.000000   1.000000
  240        8.427097      8.427120   1.000000   1.000000
  241        8.427643      8.427641   1.000000   1.000000
  242        8.436932      8.436930   1.000000   1.000000
  243        8.465259      8.465262   1.000000   1.000000
  244        8.465259      8.465262   1.000000   1.000000
  245        8.555018      8.555015   1.000000   1.000000
  246        8.555018      8.555016   1.000000   1.000000
  247        8.558618      8.558619   1.000000   1.000000
  248        8.558618      8.558619   1.000000   1.000000
  249        8.646238      8.646236   1.000000   1.000000
  250        8.646238      8.646236   1.000000   1.000000
  251        8.647454      8.647456   1.000000   1.000000
  252        8.647455      8.647457   1.000000   1.000000
  253        8.688688      8.688681   1.000000   1.000000
  254        8.688688      8.688681   1.000000   1.000000
  255        8.696125      8.696124   1.000000   1.000000
  256        8.696126      8.696125   1.000000   1.000000
  257        8.710064      8.710061   1.000000   1.000000
  258        8.710065      8.710062   1.000000   1.000000
  259        8.744671      8.744766   1.000000   1.000000
  260        8.765677      8.765672   1.000000   1.000000
  261        8.765677      8.765672   1.000000   1.000000
  262        8.766809      8.766804   1.000000   1.000000
  263        8.773401      8.773394   1.000000   1.000000
  264        8.794811      8.794809   1.000000   1.000000
  265        8.794812      8.794809   1.000000   1.000000
  266        8.826733      8.826739   1.000000   1.000000
  267        8.826733      8.826740   1.000000   1.000000
  268        8.837410      8.837489   1.000000   1.000000
  269        8.837678      8.837843   1.000000   1.000000
  270        8.858238      8.858244   1.000000   1.000000
  271        8.858238      8.858245   1.000000   1.000000
  272        8.869670      8.869673   1.000000   1.000000
  273        8.869671      8.869674   1.000000   1.000000
  274        8.903594      8.903837   1.000000   1.000000
  275        8.979405      8.979415   1.000000   1.000000
  276        8.979407      8.979417   1.000000   1.000000
  277        8.988074      8.988072   1.000000   1.000000
  278        8.988075      8.988073   1.000000   1.000000
  279        8.998967      8.998974   1.000000   1.000000
  280        8.998968      8.998975   1.000000   1.000000
  281        9.031914      9.031899   1.000000   1.000000
  282        9.069124      9.069061   1.000000   1.000000
  283        9.075944      9.075934   1.000001   1.000001
  284        9.089864      9.089942   1.000001   1.000001
  285        9.166383      9.166386   1.000011   1.000011
  286        9.166383      9.166386   1.000011   1.000011
  287        9.185209      9.185197   1.000020   1.000020
  288        9.211210      9.211175   1.000044   1.000044
  289        9.221253      9.221392   1.000059   1.000059
  290        9.225748      9.225753   1.000067   1.000067
  291        9.225748      9.225753   1.000067   1.000067
  292        9.246865      9.246831   1.000121   1.000121
  293        9.271692      9.271669   1.000235   1.000234
  294        9.271694      9.271671   1.000235   1.000234
  295        9.279611      9.279581   1.000288   1.000288
  296        9.311165      9.311139   1.000629   1.000628
  297        9.326250      9.326231   1.000895   1.000895
  298        9.333842      9.334009   1.001064   1.001068
  299        9.354688      9.354665   1.001682   1.001681
  300        9.357158      9.357148   1.001772   1.001772
  301        9.357158      9.357148   1.001772   1.001772
  302        9.365312      9.365308   1.002102   1.002102
  303        9.383788      9.383783   1.003051   1.003050
  304        9.415050      9.415031   1.005460   1.005459
  305        9.426441      9.426426   1.006647   1.006646
  306        9.429807      9.429799   1.007034   1.007033
  307        9.432813      9.432791   1.007393   1.007391
  308        9.475565      9.475571   1.014042   1.014043
  309        9.475566      9.475571   1.014042   1.014043
  310        9.500643      9.500654   1.019214   1.019216
  311        9.589080      9.589175   1.035410   1.035412
  312        9.589133      9.589323   1.035411   1.035416
  313        9.605072      9.605078   1.034813   1.034812
  314        9.609647      9.609654   1.034213   1.034212
  315        9.621235      9.621261   1.031669   1.031662
  316        9.662228      9.662232   1.007189   1.007185
  317        9.662228      9.662232   1.007188   1.007185
  318        9.690178      9.690205   0.972174   0.972133
  319        9.743274      9.743269   0.854138   0.854153
  320        9.743278      9.743273   0.854129   0.854143
  321        9.777501      9.777492   0.742042   0.742075
  322        9.807500      9.807524   0.625805   0.625708
  323        9.845707      9.845732   0.465756   0.465651
  324        9.860319      9.860419   0.404580   0.404167
  325       10.021943     10.021997  -0.014975  -0.015017
  326       10.065209     10.065457  -0.034157  -0.034196
  327       10.065213     10.065461  -0.034158  -0.034197
  328       10.097591     10.097570  -0.034673  -0.034675
  329       10.097596     10.097575  -0.034673  -0.034675
  330       10.271170     10.271331  -0.004480  -0.004466
  331       10.271171     10.271332  -0.004480  -0.004466
  332       10.314563     10.314662  -0.001908  -0.001904
  333       10.399869     10.400000  -0.000258  -0.000257
  334       10.399869     10.400000  -0.000258  -0.000257
  335       10.425475     10.425497  -0.000131  -0.000130
  336       10.529884     10.529977  -0.000006  -0.000006
  337       10.529885     10.529979  -0.000006  -0.000006
  338       10.598007     10.598061  -0.000001  -0.000001
  339       10.598010     10.598064  -0.000001  -0.000001
  340       10.650492     10.650541  -0.000000  -0.000000
  341       10.650494     10.650543  -0.000000  -0.000000
  342       10.763924     10.763983  -0.000000  -0.000000
  343       10.763926     10.763986  -0.000000  -0.000000
  344       10.829527     10.829614  -0.000000  -0.000000
  345       10.829531     10.829617  -0.000000  -0.000000
  346       10.847291     10.847371  -0.000000  -0.000000
  347       10.847295     10.847375  -0.000000  -0.000000
  348       10.870002     10.870067  -0.000000  -0.000000
  349       10.870005     10.870070  -0.000000  -0.000000
  350       10.876131     10.876184  -0.000000  -0.000000
  351       10.876136     10.876189  -0.000000  -0.000000
  352       10.883704     10.883752  -0.000000  -0.000000
  353       10.883709     10.883757  -0.000000  -0.000000
  354       10.977387     10.977443  -0.000000  -0.000000
  355       10.977390     10.977446  -0.000000  -0.000000
  356       11.013392     11.013458  -0.000000  -0.000000
  357       11.013393     11.013460  -0.000000  -0.000000
  358       11.014530     11.014595  -0.000000  -0.000000
  359       11.063527     11.063585  -0.000000  -0.000000
  360       11.063530     11.063587  -0.000000  -0.000000
  361       11.087325     11.087270  -0.000000  -0.000000
  362       11.087327     11.087272  -0.000000  -0.000000
  363       11.097515     11.097527  -0.000000  -0.000000
  364       11.097519     11.097531  -0.000000  -0.000000
  365       11.192157     11.192193  -0.000000  -0.000000
  366       11.199788     11.199777  -0.000000  -0.000000
  367       11.199791     11.199780  -0.000000  -0.000000
  368       11.203223     11.203258  -0.000000  -0.000000
  369       11.203225     11.203259  -0.000000  -0.000000
  370       11.360276     11.360310  -0.000000  -0.000000
  371       11.360276     11.360310  -0.000000  -0.000000
  372       11.414338     11.414372  -0.000000  -0.000000
  373       11.414338     11.414372  -0.000000  -0.000000
  374       11.431359     11.431382  -0.000000  -0.000000
  375       11.431360     11.431384  -0.000000  -0.000000
  376       11.473541     11.473638  -0.000000  -0.000000
  377       11.519201     11.519239  -0.000000  -0.000000
  378       11.519201     11.519240  -0.000000  -0.000000
  379       11.613750     11.613701  -0.000000  -0.000000
  380       11.613750     11.613702  -0.000000  -0.000000
  381       11.622307     11.622355  -0.000000  -0.000000
  382       11.622309     11.622357  -0.000000  -0.000000
  383       11.712050     11.712059  -0.000000  -0.000000
  384       11.712051     11.712060  -0.000000  -0.000000
  385       11.812030     11.812008  -0.000000  -0.000000
  386       11.812032     11.812008  -0.000000  -0.000000
  387       11.856603     11.856692  -0.000000  -0.000000
  388       11.865384     11.865533  -0.000000  -0.000000
  389       11.865386     11.865535  -0.000000  -0.000000
  390       12.096793     12.096862  -0.000000  -0.000000
  391       12.140478     12.140532  -0.000000  -0.000000
  392       12.140492     12.140536  -0.000000  -0.000000
  393       12.193038     12.193175  -0.000000  -0.000000
  394       12.193067     12.193187  -0.000000  -0.000000
  395       12.257977     12.257969  -0.000000  -0.000000
  396       12.335037     12.335092  -0.000000  -0.000000
  397       12.424211     12.424258  -0.000000  -0.000000
  398       12.424292     12.424337  -0.000000  -0.000000
  399       12.567833     12.567892  -0.000000  -0.000000
  400       12.567923     12.567936  -0.000000  -0.000000
  401       12.656530     12.656488  -0.000000  -0.000000
  402       12.657196     12.658194  -0.000000  -0.000000
  403       12.740053     12.740046  -0.000000  -0.000000
  404       12.807745     12.807513  -0.000000  -0.000000
  405       12.807907     12.808226  -0.000000  -0.000000
  406       12.874916     12.874994  -0.000000  -0.000000
  407       13.026212     13.026296  -0.000000  -0.000000
  408       13.038891     13.028967  -0.000000  -0.000000
  409       13.051442     13.045509  -0.000000  -0.000000
  410       13.060018     13.051665  -0.000000  -0.000000
  411       13.110924     13.108995  -0.000000  -0.000000
  412       13.127291     13.117389  -0.000000  -0.000000
  413       13.161403     13.153743  -0.000000  -0.000000
  414       13.168822     13.163938  -0.000000  -0.000000
  415       13.200398     13.167788  -0.000000  -0.000000
  416       13.228043     13.277905  -0.000000  -0.000000
 
  0.5000000E-01  0.0000000E+00  0.0000000E+00  0.5000000E-02
    1      -47.538301    -47.538170   1.000000   1.000000
    2      -47.534480    -47.534349   1.000000   1.000000
    3      -47.512655    -47.512538   1.000000   1.000000
    4      -47.512556    -47.512439   1.000000   1.000000
    5      -47.412329    -47.412237   1.000000   1.000000
    6      -47.412296    -47.412204   1.000000   1.000000
    7      -47.354497    -47.354442   1.000000   1.000000
    8      -47.354409    -47.354354   1.000000   1.000000
    9      -47.262145    -47.262131   1.000000   1.000000
   10      -47.261805    -47.261792   1.000000   1.000000
   11      -47.240479    -47.240503   1.000000   1.000000
   12      -47.240023    -47.240047   1.000000   1.000000
   13      -47.172943    -47.173014   1.000000   1.000000
   14      -47.167883    -47.167953   1.000000   1.000000
   15      -23.817452    -23.817298   1.000000   1.000000
   16      -23.817312    -23.817158   1.000000   1.000000
   17      -23.813423    -23.813267   1.000000   1.000000
   18      -23.802380    -23.802229   1.000000   1.000000
   19      -23.802254    -23.802104   1.000000   1.000000
   20      -23.799350    -23.799198   1.000000   1.000000
   21      -23.782938    -23.782800   1.000000   1.000000
   22      -23.782809    -23.782670   1.000000   1.000000
   23      -23.780127    -23.779986   1.000000   1.000000
   24      -23.779735    -23.779594   1.000000   1.000000
   25      -23.774195    -23.774057   1.000000   1.000000
   26      -23.770219    -23.770079   1.000000   1.000000
   27      -23.690470    -23.690363   1.000000   1.000000
   28      -23.690459    -23.690352   1.000000   1.000000
   29      -23.690364    -23.690258   1.000000   1.000000
   30      -23.690354    -23.690247   1.000000   1.000000
   31      -23.666002    -23.665896   1.000000   1.000000
   32      -23.665984    -23.665877   1.000000   1.000000
   33      -23.634137    -23.634072   1.000000   1.000000
   34      -23.634087    -23.634022   1.000000   1.000000
   35      -23.634063    -23.633998   1.000000   1.000000
   36      -23.634013    -23.633947   1.000000   1.000000
   37      -23.599678    -23.599613   1.000000   1.000000
   38      -23.599600    -23.599534   1.000000   1.000000
   39      -23.550253    -23.550239   1.000000   1.000000
   40      -23.550199    -23.550184   1.000000   1.000000
   41      -23.549907    -23.549893   1.000000   1.000000
   42      -23.549852    -23.549838   1.000000   1.000000
   43      -23.515575    -23.515598   1.000000   1.000000
   44      -23.515171    -23.515194   1.000000   1.000000
   45      -23.515134    -23.515157   1.000000   1.000000
   46      -23.514729    -23.514752   1.000000   1.000000
   47      -23.499445    -23.499450   1.000000   1.000000
   48      -23.499055    -23.499059   1.000000   1.000000
   49      -23.480551    -23.480557   1.000000   1.000000
   50      -23.480158    -23.480164   1.000000   1.000000
   51      -23.453731    -23.453813   1.000000   1.000000
   52      -23.453627    -23.453709   1.000000   1.000000
   53      -23.441597    -23.441679   1.000000   1.000000
   54      -23.430460    -23.430541   1.000000   1.000000
   55      -23.430332    -23.430413   1.000000   1.000000
   56      -23.421373    -23.421455   1.000000   1.000000
   57        0.950022      0.949906   1.000000   1.000000
   58        1.186723      1.186652   1.000000   1.000000
   59        1.323541      1.323852   1.000000   1.000000
   60        1.635473      1.635676   1.000000   1.000000
   61        1.898273      1.898422   1.000000   1.000000
   62        2.408957      2.409110   1.000000   1.000000
   63        2.612988      2.613061   1.000000   1.000000
   64        3.348935      3.349008   1.000000   1.000000
   65        3.369572      3.369697   1.000000   1.000000
   66        4.205936      4.206043   1.000000   1.000000
   67        4.268597      4.268692   1.000000   1.000000
   68        4.869461      4.869570   1.000000   1.000000
   69        4.871718      4.871827   1.000000   1.000000
   70        5.069892      5.070020   1.000000   1.000000
   71        5.079752      5.079913   1.000000   1.000000
   72        5.091296      5.091461   1.000000   1.000000
   73        5.118271      5.118441   1.000000   1.000000
   74        5.121781      5.121951   1.000000   1.000000
   75        5.201338      5.201365   1.000000   1.000000
   76        5.248286      5.248401   1.000000   1.000000
   77        5.261216      5.261329   1.000000   1.000000
   78        5.269542      5.269646   1.000000   1.000000
   79        5.276373      5.276479   1.000000   1.000000
   80        5.381420      5.381452   1.000000   1.000000
   81        5.399935      5.400004   1.000000   1.000000
   82        5.406540      5.406527   1.000000   1.000000
   83        5.433147      5.433227   1.000000   1.000000
   84        5.447854      5.447937   1.000000   1.000000
   85        5.496886      5.496933   1.000000   1.000000
   86        5.510469      5.510519   1.000000   1.000000
   87        5.555859      5.555840   1.000000   1.000000
   88        5.605544      5.605590   1.000000   1.000000
   89        5.612264      5.612244   1.000000   1.000000
   90        5.618175      5.618172   1.000000   1.000000
   91        5.671112      5.671182   1.000000   1.000000
   92        5.675644      5.675663   1.000000   1.000000
   93        5.678991      5.679089   1.000000   1.000000
   94        5.695730      5.695717   1.000000   1.000000
   95        5.696129      5.696123   1.000000   1.000000