       N       E                     dE             d eps       ncg     rms          rms(c)
RMM:   1     0.183558115221E+04    0.18356E+04   -0.25239E+05100672   0.170E+03
RMM:   2     0.699753706799E+01   -0.18286E+04   -0.41794E+04100672   0.361E+02
RMM:   3    -0.152462587887E+03   -0.15946E+03   -0.47036E+03100672   0.173E+02
RMM:   4    -0.329057041500E+03   -0.17659E+03   -0.10454E+03100672   0.845E+01
RMM:   5    -0.377778202230E+03   -0.48721E+02   -0.44417E+02100672   0.508E+01
RMM:   6    -0.404329699815E+03   -0.26551E+02   -0.26553E+02100672   0.399E+01
RMM:   7    -0.417657803950E+03   -0.13328E+02   -0.25515E+02100672   0.353E+01
RMM:   8    -0.429513305205E+03   -0.11856E+02   -0.17895E+02100672   0.293E+01
RMM:   9    -0.446518953699E+03   -0.17006E+02   -0.41827E+02321513   0.329E+01
RMM:  10    -0.459739506404E+03   -0.13221E+02   -0.17479E+02363488   0.116E+01
RMM:  11    -0.463831953765E+03   -0.40924E+01   -0.50334E+01364325   0.620E+00
RMM:  12    -0.466693896730E+03   -0.28619E+01   -0.27752E+01364634   0.398E+00    0.847E+01
RMM:  13    -0.468930264166E+03   -0.22364E+01   -0.85953E+02211195   0.756E+01    0.763E+01
RMM:  14    -0.583116532659E+03   -0.11419E+03   -0.55430E+02226760   0.467E+01    0.191E+02
RMM:  15    -0.102170306350E+04   -0.43859E+03   -0.42947E+02325170   0.255E+01    0.226E+02
RMM:  16    -0.609418491905E+03    0.41228E+03   -0.14321E+02246437   0.225E+01    0.170E+02
RMM:  17    -0.433201662969E+03    0.17622E+03   -0.69405E+01231959   0.155E+01    0.478E+01
RMM:  18    -0.450044811430E+03   -0.16843E+02   -0.13083E+02210566   0.222E+01    0.745E+01
RMM:  19    -0.433074758042E+03    0.16970E+02   -0.57447E+01214360   0.156E+01    0.708E+01
RMM:  20    -0.413331835202E+03    0.19743E+02   -0.26446E+01214700   0.104E+01    0.300E+01
RMM:  21    -0.407126389882E+03    0.62054E+01   -0.11985E+01213426   0.726E+00    0.239E+01
RMM:  22    -0.405209921763E+03    0.19165E+01   -0.20078E+00220877   0.293E+00    0.192E+01
RMM:  23    -0.405190616063E+03    0.19306E-01   -0.21838E-01337556   0.508E-01    0.194E+01
RMM:  24    -0.405113889126E+03    0.76727E-01   -0.86292E-01243413   0.171E+00    0.183E+01
RMM:  25    -0.404527758180E+03    0.58613E+00   -0.23145E+00236797   0.281E+00    0.165E+01
RMM:  26    -0.404562513338E+03   -0.34755E-01   -0.22786E+00226857   0.306E+00    0.134E+01
RMM:  27    -0.408056881120E+03   -0.34944E+01   -0.24708E+00248985   0.275E+00    0.220E+01
RMM:  28    -0.413729856824E+03   -0.56730E+01   -0.31292E+00232827   0.339E+00    0.412E+01
RMM:  29    -0.408617344691E+03    0.51125E+01   -0.14078E+00220414   0.243E+00    0.162E+01
RMM:  30    -0.409599901683E+03   -0.98256E+00   -0.40597E+00225074   0.365E+00    0.163E+01
RMM:  31    -0.409605843149E+03   -0.59415E-02   -0.18604E+00231778   0.256E+00    0.123E+01
RMM:  32    -0.409811407814E+03   -0.20556E+00   -0.49267E-01269998   0.122E+00    0.128E+01
RMM:  33    -0.409902777326E+03   -0.91370E-01   -0.18990E-01257169   0.826E-01    0.125E+01
RMM:  34    -0.410823647717E+03   -0.92087E+00   -0.91347E-01229092   0.184E+00    0.120E+01
RMM:  35    -0.410928444817E+03   -0.10480E+00   -0.66740E-01230546   0.153E+00    0.962E+00
RMM:  36    -0.411067168448E+03   -0.13872E+00   -0.63719E-01229088   0.148E+00    0.828E+00
RMM:  37    -0.410871473125E+03    0.19570E+00   -0.27998E-01245660   0.942E-01    0.635E+00
RMM:  38    -0.410733293011E+03    0.13818E+00   -0.14455E-01269399   0.636E-01    0.504E+00
RMM:  39    -0.410603173731E+03    0.13012E+00   -0.89680E-02274456   0.529E-01    0.398E+00
RMM:  40    -0.410493971372E+03    0.10920E+00   -0.53864E-02281147   0.387E-01    0.312E+00
RMM:  41    -0.410397788274E+03    0.96183E-01   -0.32613E-02277755   0.300E-01    0.226E+00
RMM:  42    -0.410360231221E+03    0.37557E-01   -0.10460E-02289743   0.158E-01    0.184E+00
RMM:  43    -0.410333861658E+03    0.26370E-01   -0.41358E-03275672   0.991E-02    0.158E+00
RMM:  44    -0.410311542490E+03    0.22319E-01   -0.31747E-03263120   0.101E-01    0.128E+00
RMM:  45    -0.410286857548E+03    0.24685E-01   -0.53837E-03256794   0.131E-01    0.821E-01
RMM:  46    -0.410276757670E+03    0.10100E-01   -0.28206E-03268420   0.855E-02    0.561E-01
RMM:  47    -0.410269207394E+03    0.75503E-02   -0.21075E-03259675   0.801E-02    0.285E-01
RMM:  48    -0.410267462720E+03    0.17447E-02   -0.12237E-03255421   0.608E-02    0.133E-01
RMM:  49    -0.410267548788E+03   -0.86068E-04   -0.51595E-04223911   0.350E-02
   1 F= -.41026755E+03 E0= -.41030418E+03  d E =-.410268E+03  mag=     0.0120
       N       E                     dE             d eps       ncg     rms          rms(c)
RMM:   1    -0.411933260021E+03   -0.16658E+01   -0.22633E+01213766   0.130E+01    0.111E+01
RMM:   2    -0.419134229670E+03   -0.72010E+01   -0.23338E+01212669   0.115E+01    0.379E+01
RMM:   3    -0.477034716925E+03   -0.57900E+02   -0.13460E+01233638   0.692E+00    0.104E+02
RMM:   4    -0.412712789370E+03    0.64322E+02   -0.67644E+00222984   0.495E+00    0.119E+01
RMM:   5    -0.411472835070E+03    0.12400E+01   -0.48160E+00215367   0.462E+00    0.974E+00
RMM:   6    -0.410476752436E+03    0.99608E+00   -0.11092E+00215286   0.251E+00    0.400E+00
RMM:   7    -0.410395353895E+03    0.81399E-01   -0.22767E-01222304   0.992E-01    0.353E+00
RMM:   8    -0.410303576654E+03    0.91777E-01   -0.14229E-01226084   0.761E-01    0.177E+00
RMM:   9    -0.410285159081E+03    0.18418E-01   -0.51341E-02237375   0.423E-01    0.116E+00
RMM:  10    -0.410281715498E+03    0.34436E-02   -0.33927E-02232298   0.369E-01    0.109E+00
RMM:  11    -0.410274025855E+03    0.76896E-02   -0.15705E-02230467   0.261E-01    0.598E-01
RMM:  12    -0.410275310412E+03   -0.12846E-02   -0.57043E-03238284   0.140E-01    0.662E-01
RMM:  13    -0.410274270548E+03    0.10399E-02   -0.30161E-03220994   0.114E-01    0.546E-01
RMM:  14    -0.410273120152E+03    0.11504E-02   -0.11135E-03224658   0.625E-02    0.427E-01
RMM:  15    -0.410271954116E+03    0.11660E-02   -0.81266E-04220172   0.527E-02    0.259E-01
RMM:  16    -0.410271690200E+03    0.26392E-03   -0.47119E-04183008   0.456E-02    0.198E-01
RMM:  17    -0.410271358333E+03    0.33187E-03   -0.42899E-04172021   0.445E-02    0.870E-02
RMM:  18    -0.410271265634E+03    0.92699E-04   -0.80609E-05122861   0.211E-02
   2 F= -.41027127E+03 E0= -.41030922E+03  d E =-.371685E-02  mag=     0.0062
       N       E                     dE             d eps       ncg     rms          rms(c)
RMM:   1    -0.410683698565E+03   -0.41234E+00   -0.54048E+00214031   0.621E+00    0.542E+00
RMM:   2    -0.412030692796E+03   -0.13470E+01   -0.55647E+00212090   0.570E+00    0.111E+01
RMM:   3    -0.411796240198E+03    0.23445E+00   -0.30345E+00208570   0.399E+00    0.146E+01
RMM:   4    -0.410536518952E+03    0.12597E+01   -0.41652E-01248570   0.116E+00    0.308E+00
RMM:   5    -0.410450448836E+03    0.86070E-01   -0.16037E-01219023   0.859E-01    0.188E+00
RMM:   6    -0.410356740237E+03    0.93709E-01   -0.68832E-02219605   0.562E-01    0.175E+00
RMM:   7    -0.410306069164E+03    0.50671E-01   -0.45690E-02230071   0.436E-01    0.130E+00
RMM:   8    -0.410299857606E+03    0.62116E-02   -0.19337E-02232665   0.285E-01    0.688E-01
RMM:   9    -0.410295800958E+03    0.40566E-02   -0.38797E-03227035   0.117E-01    0.627E-01
RMM:  10    -0.410291333091E+03    0.44679E-02   -0.12255E-03227617   0.624E-02    0.551E-01
RMM:  11    -0.410288185577E+03    0.31475E-02   -0.13335E-03227727   0.729E-02    0.458E-01
RMM:  12    -0.410283549825E+03    0.46358E-02   -0.25591E-03237645   0.101E-01    0.236E-01
RMM:  13    -0.410282327596E+03    0.12222E-02   -0.12002E-03245550   0.640E-02    0.748E-02
RMM:  14    -0.410282270060E+03    0.57536E-04   -0.23908E-04157168   0.292E-02
   3 F= -.41028227E+03 E0= -.41031956E+03  d E =-.147213E-01  mag=     0.0038
