<?xml version="1.0" encoding="ISO-8859-1"?>
<modeling>
 <generator>
  <i name="program" type="string">vasp </i>
  <i name="version" type="string">5.4.1  </i>
  <i name="subversion" type="string">05Feb16 (build Jan 17 2017 23:57:57) complex                          parallel </i>
  <i name="platform" type="string">IFC91_ompi </i>
  <i name="date" type="string">2019 08 23 </i>
  <i name="time" type="string">11:04:09 </i>
 </generator>
 <incar>
  <i type="string" name="SYSTEM"> Test of VASP submission</i>
  <i type="string" name="PREC">normal</i>
  <i type="int" name="IALGO">    48</i>
  <i type="int" name="ISPIN">     2</i>
  <i type="int" name="NELM">   100</i>
  <i type="int" name="IBRION">     2</i>
  <i type="int" name="NSW">    63</i>
  <i type="int" name="ISIF">     3</i>
  <i type="int" name="ISYM">     2</i>
  <i name="ENCUT">    400.00000000</i>
  <v name="MAGMOM">      0.00000000      0.00000000      1.00000000      1.00000000      1.00000000      1.00000000      1.00000000      1.00000000      1.00000000      1.00000000      1.00000000      1.00000000      1.00000000      1.00000000      1.00000000      1.00000000      1.00000000      1.00000000      1.00000000      1.00000000
      1.00000000      1.00000000      1.00000000      1.00000000      1.00000000      1.00000000      1.00000000      1.00000000      1.00000000      1.00000000      1.00000000      1.00000000      1.00000000      1.00000000      1.00000000      1.00000000      1.00000000      1.00000000      1.00000000      1.00000000
      1.00000000      1.00000000      1.00000000      1.00000000      1.00000000      1.00000000      1.00000000      1.00000000      1.00000000      1.00000000      0.00000000      0.00000000      0.00000000      0.00000000      0.00000000      0.00000000      0.00000000      0.00000000      0.00000000      0.00000000
      0.00000000      0.00000000      0.00000000      0.00000000</v>
  <i type="int" name="ISMEAR">     1</i>
  <i name="SIGMA">      0.20000000</i>
  <i type="logical" name="LWAVE"> F  </i>
  <i type="logical" name="LCHARG"> F  </i>
  <v type="int" name="KPOINT_BSE">    -1     0     0     0</v>
  <i type="int" name="NELM">   100</i>
 </incar>
 <kpoints>
  <generation param="Gamma">
   <v type="int" name="divisions">      20       20        3 </v>
   <v name="usershift">      0.00000000       0.00000000       0.00000000 </v>
   <v name="genvec1">      0.05000000       0.00000000       0.00000000 </v>
   <v name="genvec2">      0.00000000       0.05000000       0.00000000 </v>
   <v name="genvec3">      0.00000000       0.00000000       0.33333333 </v>
   <v name="shift">      0.00000000       0.00000000       0.00000000 </v>
  </generation>
  <varray name="kpointlist" >
   <v>       0.00000000       0.00000000       0.00000000 </v>
   <v>       0.05000000       0.00000000       0.00000000 </v>
   <v>       0.10000000       0.00000000       0.00000000 </v>
   <v>       0.15000000       0.00000000       0.00000000 </v>
   <v>       0.20000000       0.00000000       0.00000000 </v>
   <v>       0.25000000       0.00000000       0.00000000 </v>
   <v>       0.30000000      -0.00000000       0.00000000 </v>
   <v>       0.35000000       0.00000000       0.00000000 </v>
   <v>       0.40000000       0.00000000       0.00000000 </v>
   <v>       0.45000000       0.00000000       0.00000000 </v>
   <v>       0.50000000       0.00000000       0.00000000 </v>
   <v>       0.05000000       0.05000000       0.00000000 </v>
   <v>       0.10000000       0.05000000       0.00000000 </v>
   <v>       0.15000000       0.05000000       0.00000000 </v>
   <v>       0.20000000       0.05000000       0.00000000 </v>
   <v>       0.25000000       0.05000000       0.00000000 </v>
   <v>       0.30000000       0.05000000       0.00000000 </v>
   <v>       0.35000000       0.05000000       0.00000000 </v>
   <v>       0.40000000       0.05000000       0.00000000 </v>
   <v>       0.45000000       0.05000000       0.00000000 </v>
   <v>       0.10000000       0.10000000       0.00000000 </v>
   <v>       0.15000000       0.10000000       0.00000000 </v>
   <v>       0.20000000       0.10000000       0.00000000 </v>
   <v>       0.25000000       0.10000000       0.00000000 </v>
   <v>       0.30000000       0.10000000       0.00000000 </v>
   <v>       0.35000000       0.10000000       0.00000000 </v>
   <v>       0.40000000       0.10000000       0.00000000 </v>
   <v>       0.45000000       0.10000000       0.00000000 </v>
   <v>       0.15000000       0.15000000       0.00000000 </v>
   <v>       0.20000000       0.15000000       0.00000000 </v>
   <v>       0.25000000       0.15000000       0.00000000 </v>
   <v>       0.30000000       0.15000000       0.00000000 </v>
   <v>       0.35000000       0.15000000       0.00000000 </v>
   <v>       0.40000000       0.15000000       0.00000000 </v>
   <v>       0.20000000       0.20000000       0.00000000 </v>
   <v>       0.25000000       0.20000000       0.00000000 </v>
   <v>       0.30000000       0.20000000       0.00000000 </v>
   <v>       0.35000000       0.20000000       0.00000000 </v>
   <v>       0.40000000       0.20000000       0.00000000 </v>
   <v>       0.25000000       0.25000000       0.00000000 </v>
   <v>       0.30000000       0.25000000       0.00000000 </v>
   <v>       0.35000000       0.25000000       0.00000000 </v>
   <v>       0.30000000       0.30000000       0.00000000 </v>
   <v>       0.35000000       0.30000000       0.00000000 </v>
   <v>       0.00000000       0.00000000       0.33333333 </v>
   <v>       0.05000000       0.00000000       0.33333333 </v>
   <v>       0.10000000       0.00000000       0.33333333 </v>
   <v>       0.15000000       0.00000000       0.33333333 </v>
   <v>       0.20000000       0.00000000       0.33333333 </v>
   <v>       0.25000000       0.00000000       0.33333333 </v>
   <v>       0.30000000      -0.00000000       0.33333333 </v>
   <v>       0.35000000       0.00000000       0.33333333 </v>
   <v>       0.40000000       0.00000000       0.33333333 </v>
   <v>       0.45000000       0.00000000       0.33333333 </v>
   <v>       0.50000000       0.00000000       0.33333333 </v>
   <v>      -0.45000000       0.00000000       0.33333333 </v>
   <v>      -0.40000000       0.00000000       0.33333333 </v>
   <v>      -0.35000000       0.00000000       0.33333333 </v>
   <v>      -0.30000000       0.00000000       0.33333333 </v>
   <v>      -0.25000000      -0.00000000       0.33333333 </v>
   <v>      -0.20000000       0.00000000       0.33333333 </v>
   <v>      -0.15000000       0.00000000       0.33333333 </v>
   <v>      -0.10000000       0.00000000       0.33333333 </v>
   <v>      -0.05000000       0.00000000       0.33333333 </v>
   <v>       0.05000000       0.05000000       0.33333333 </v>
   <v>       0.10000000       0.05000000       0.33333333 </v>
   <v>       0.15000000       0.05000000       0.33333333 </v>
   <v>       0.20000000       0.05000000       0.33333333 </v>
   <v>       0.25000000       0.05000000       0.33333333 </v>
   <v>       0.30000000       0.05000000       0.33333333 </v>
   <v>       0.35000000       0.05000000       0.33333333 </v>
   <v>       0.40000000       0.05000000       0.33333333 </v>
   <v>       0.45000000       0.05000000       0.33333333 </v>
   <v>       0.50000000       0.05000000       0.33333333 </v>
   <v>      -0.45000000       0.05000000       0.33333333 </v>
   <v>      -0.40000000       0.05000000       0.33333333 </v>
   <v>      -0.35000000       0.05000000       0.33333333 </v>
   <v>      -0.30000000       0.05000000       0.33333333 </v>
   <v>      -0.25000000       0.05000000       0.33333333 </v>
   <v>      -0.20000000       0.05000000       0.33333333 </v>
   <v>      -0.15000000       0.05000000       0.33333333 </v>
   <v>       0.10000000       0.10000000       0.33333333 </v>
   <v>       0.15000000       0.10000000       0.33333333 </v>
   <v>       0.20000000       0.10000000       0.33333333 </v>
   <v>       0.25000000       0.10000000       0.33333333 </v>
   <v>       0.30000000       0.10000000       0.33333333 </v>
   <v>       0.35000000       0.10000000       0.33333333 </v>
   <v>       0.40000000       0.10000000       0.33333333 </v>
   <v>       0.45000000       0.10000000       0.33333333 </v>
   <v>       0.50000000       0.10000000       0.33333333 </v>
   <v>      -0.45000000       0.10000000       0.33333333 </v>
   <v>      -0.40000000       0.10000000       0.33333333 </v>
   <v>      -0.35000000       0.10000000       0.33333333 </v>
   <v>      -0.30000000       0.10000000       0.33333333 </v>
   <v>      -0.25000000       0.10000000       0.33333333 </v>
   <v>       0.15000000       0.15000000       0.33333333 </v>
   <v>       0.20000000       0.15000000       0.33333333 </v>
   <v>       0.25000000       0.15000000       0.33333333 </v>
   <v>       0.30000000       0.15000000       0.33333333 </v>
   <v>       0.35000000       0.15000000       0.33333333 </v>
   <v>       0.40000000       0.15000000       0.33333333 </v>
   <v>       0.45000000       0.15000000       0.33333333 </v>
   <v>       0.50000000       0.15000000       0.33333333 </v>
   <v>      -0.45000000       0.15000000       0.33333333 </v>
   <v>      -0.40000000       0.15000000       0.33333333 </v>
   <v>      -0.35000000       0.15000000       0.33333333 </v>
   <v>       0.20000000       0.20000000       0.33333333 </v>
   <v>       0.25000000       0.20000000       0.33333333 </v>
   <v>       0.30000000       0.20000000       0.33333333 </v>
   <v>       0.35000000       0.20000000       0.33333333 </v>
   <v>       0.40000000       0.20000000       0.33333333 </v>
   <v>       0.45000000       0.20000000       0.33333333 </v>
   <v>       0.50000000       0.20000000       0.33333333 </v>
   <v>      -0.45000000       0.20000000       0.33333333 </v>
   <v>       0.25000000       0.25000000       0.33333333 </v>
   <v>       0.30000000       0.25000000       0.33333333 </v>
   <v>       0.35000000       0.25000000       0.33333333 </v>
   <v>       0.40000000       0.25000000       0.33333333 </v>
   <v>       0.45000000       0.25000000       0.33333333 </v>
   <v>       0.30000000       0.30000000       0.33333333 </v>
   <v>       0.35000000       0.30000000       0.33333333 </v>
  </varray>
  <varray name="weights" >
   <v>       0.00083333 </v>
   <v>       0.00500000 </v>
   <v>       0.00500000 </v>
   <v>       0.00500000 </v>
   <v>       0.00500000 </v>
   <v>       0.00500000 </v>
   <v>       0.00500000 </v>
   <v>       0.00500000 </v>
   <v>       0.00500000 </v>
   <v>       0.00500000 </v>
   <v>       0.00250000 </v>
   <v>       0.00500000 </v>
   <v>       0.01000000 </v>
   <v>       0.01000000 </v>
   <v>       0.01000000 </v>
   <v>       0.01000000 </v>
   <v>       0.01000000 </v>
   <v>       0.01000000 </v>
   <v>       0.01000000 </v>
   <v>       0.01000000 </v>
   <v>       0.00500000 </v>
   <v>       0.01000000 </v>
   <v>       0.01000000 </v>
   <v>       0.01000000 </v>
   <v>       0.01000000 </v>
   <v>       0.01000000 </v>
   <v>       0.01000000 </v>
   <v>       0.00500000 </v>
   <v>       0.00500000 </v>
   <v>       0.01000000 </v>
   <v>       0.01000000 </v>
   <v>       0.01000000 </v>
   <v>       0.01000000 </v>
   <v>       0.01000000 </v>
   <v>       0.00500000 </v>
   <v>       0.01000000 </v>
   <v>       0.01000000 </v>
   <v>       0.01000000 </v>
   <v>       0.00500000 </v>
   <v>       0.00500000 </v>
   <v>       0.01000000 </v>
   <v>       0.01000000 </v>
   <v>       0.00500000 </v>
   <v>       0.00500000 </v>
   <v>       0.00166667 </v>
   <v>       0.00500000 </v>
   <v>       0.00500000 </v>
   <v>       0.00500000 </v>
   <v>       0.00500000 </v>
   <v>       0.00500000 </v>
   <v>       0.00500000 </v>
   <v>       0.00500000 </v>
   <v>       0.00500000 </v>
   <v>       0.00500000 </v>
   <v>       0.00500000 </v>
   <v>       0.00500000 </v>
   <v>       0.00500000 </v>
   <v>       0.00500000 </v>
   <v>       0.00500000 </v>
   <v>       0.00500000 </v>
   <v>       0.00500000 </v>
   <v>       0.00500000 </v>
   <v>       0.00500000 </v>
   <v>       0.00500000 </v>
   <v>       0.01000000 </v>
   <v>       0.01000000 </v>
   <v>       0.01000000 </v>
   <v>       0.01000000 </v>
   <v>       0.01000000 </v>
   <v>       0.01000000 </v>
   <v>       0.01000000 </v>
   <v>       0.01000000 </v>
   <v>       0.01000000 </v>
   <v>       0.01000000 </v>
   <v>       0.01000000 </v>
   <v>       0.01000000 </v>
   <v>       0.01000000 </v>
   <v>       0.01000000 </v>
   <v>       0.01000000 </v>
   <v>       0.01000000 </v>
   <v>       0.01000000 </v>
   <v>       0.01000000 </v>
   <v>       0.01000000 </v>
   <v>       0.01000000 </v>
   <v>       0.01000000 </v>
   <v>       0.01000000 </v>
   <v>       0.01000000 </v>
   <v>       0.01000000 </v>
   <v>       0.01000000 </v>
   <v>       0.01000000 </v>
   <v>       0.01000000 </v>
   <v>       0.01000000 </v>
   <v>       0.01000000 </v>
   <v>       0.01000000 </v>
   <v>       0.01000000 </v>
   <v>       0.01000000 </v>
   <v>       0.01000000 </v>
   <v>       0.01000000 </v>
   <v>       0.01000000 </v>
   <v>       0.01000000 </v>
   <v>       0.01000000 </v>
   <v>       0.01000000 </v>
   <v>       0.01000000 </v>
   <v>       0.01000000 </v>
   <v>       0.01000000 </v>
   <v>       0.01000000 </v>
   <v>       0.01000000 </v>
   <v>       0.01000000 </v>
   <v>       0.01000000 </v>
   <v>       0.01000000 </v>
   <v>       0.01000000 </v>
   <v>       0.01000000 </v>
   <v>       0.01000000 </v>
   <v>       0.01000000 </v>
   <v>       0.01000000 </v>
   <v>       0.01000000 </v>
   <v>       0.01000000 </v>
   <v>       0.01000000 </v>
   <v>       0.01000000 </v>
   <v>       0.01000000 </v>
   <v>       0.01000000 </v>
  </varray>
 </kpoints>
 <parameters>
  <separator name="general" >
   <i type="string" name="SYSTEM">Test of VASP submission</i>
   <i type="logical" name="LCOMPAT"> F  </i>
  </separator>
  <separator name="electronic" >
   <i type="string" name="PREC">normal</i>
   <i name="ENMAX">    400.00000000</i>
   <i name="ENAUG">    544.56500000</i>
   <i name="EDIFF">      0.00010000</i>
   <i type="int" name="IALGO">    48</i>
   <i type="int" name="IWAVPR">    11</i>
   <i type="int" name="NBANDS">   416</i>
   <i name="NELECT">    654.00000000</i>
   <i type="int" name="TURBO">     0</i>
   <i type="int" name="IRESTART">     0</i>
   <i type="int" name="NREBOOT">     0</i>
   <i type="int" name="NMIN">     0</i>
   <i name="EREF">      0.00000000</i>
   <separator name="electronic smearing" >
    <i type="int" name="ISMEAR">     1</i>
    <i name="SIGMA">      0.20000000</i>
    <i name="KSPACING">      0.50000000</i>
    <i type="logical" name="KGAMMA"> T  </i>
   </separator>
   <separator name="electronic projectors" >
    <i type="logical" name="LREAL"> F  </i>
    <v name="ROPT">      0.00000000      0.00000000      0.00000000</v>
    <i type="int" name="LMAXPAW">  -100</i>
    <i type="int" name="LMAXMIX">     2</i>
    <i type="logical" name="NLSPLINE"> F  </i>
   </separator>
   <separator name="electronic startup" >
    <i type="int" name="ISTART">     0</i>
    <i type="int" name="ICHARG">     2</i>
    <i type="int" name="INIWAV">     1</i>
   </separator>
   <separator name="electronic spin" >
    <i type="int" name="ISPIN">     2</i>
    <i type="logical" name="LNONCOLLINEAR"> F  </i>
    <v name="MAGMOM">      0.00000000      0.00000000      1.00000000      1.00000000      1.00000000      1.00000000      1.00000000      1.00000000      1.00000000      1.00000000      1.00000000      1.00000000      1.00000000      1.00000000      1.00000000      1.00000000      1.00000000      1.00000000      1.00000000      1.00000000
      1.00000000      1.00000000      1.00000000      1.00000000      1.00000000      1.00000000      1.00000000      1.00000000      1.00000000      1.00000000      1.00000000      1.00000000      1.00000000      1.00000000      1.00000000      1.00000000      1.00000000      1.00000000      1.00000000      1.00000000
      1.00000000      1.00000000      1.00000000      1.00000000      1.00000000      1.00000000      1.00000000      1.00000000      1.00000000      1.00000000      0.00000000      0.00000000      0.00000000      0.00000000      0.00000000      0.00000000      0.00000000      0.00000000      0.00000000      0.00000000
      0.00000000      0.00000000      0.00000000      0.00000000</v>
    <i name="NUPDOWN">     -1.00000000</i>
    <i type="logical" name="LSORBIT"> F  </i>
    <v name="SAXIS">      0.00000000      0.00000000      1.00000000</v>
    <i type="logical" name="LSPIRAL"> F  </i>
    <v name="QSPIRAL">      0.00000000      0.00000000      0.00000000</v>
    <i type="logical" name="LZEROZ"> F  </i>
   </separator>
   <separator name="electronic exchange-correlation" >
    <i type="logical" name="LASPH"> F  </i>
    <i type="logical" name="LMETAGGA"> F  </i>
   </separator>
   <separator name="electronic convergence" >
    <i type="int" name="NELM">   100</i>
    <i type="int" name="NELMDL">   -12</i>
    <i type="int" name="NELMIN">     2</i>
    <i name="ENINI">    400.00000000</i>
    <separator name="electronic convergence detail" >
     <i type="logical" name="LDIAG"> T  </i>
     <i type="logical" name="LSUBROT"> F  </i>
     <i name="WEIMIN">      0.00100000</i>
     <i name="EBREAK">      0.00000006</i>
     <i name="DEPER">      0.30000000</i>
     <i type="int" name="NRMM">     4</i>
     <i name="TIME">      0.40000000</i>
    </separator>
   </separator>
   <separator name="electronic mixer" >
    <i name="AMIX">      0.40000000</i>
    <i name="BMIX">      1.00000000</i>
    <i name="AMIN">      0.10000000</i>
    <i name="AMIX_MAG">      1.60000000</i>
    <i name="BMIX_MAG">      1.00000000</i>
    <separator name="electronic mixer details" >
     <i type="int" name="IMIX">     4</i>
     <i type="logical" name="MIXFIRST"> F  </i>
     <i type="int" name="MAXMIX">   -45</i>
     <i name="WC">    100.00000000</i>
     <i type="int" name="INIMIX">     1</i>
     <i type="int" name="MIXPRE">     1</i>
     <i type="int" name="MREMOVE">     5</i>
    </separator>
   </separator>
   <separator name="electronic dipolcorrection" >
    <i type="logical" name="LDIPOL"> F  </i>
    <i type="logical" name="LMONO"> F  </i>
    <i type="int" name="IDIPOL">     0</i>
    <i name="EPSILON">      1.00000000</i>
    <v name="DIPOL">   -100.00000000   -100.00000000   -100.00000000</v>
    <i name="EFIELD">      0.00000000</i>
   </separator>
  </separator>
  <separator name="grids" >
   <i type="int" name="NGX">    28</i>
   <i type="int" name="NGY">    28</i>
   <i type="int" name="NGZ">   162</i>
   <i type="int" name="NGXF">    56</i>
   <i type="int" name="NGYF">    56</i>
   <i type="int" name="NGZF">   324</i>
   <i type="logical" name="ADDGRID"> F  </i>
  </separator>
  <separator name="ionic" >
   <i type="int" name="NSW">    63</i>
   <i type="int" name="IBRION">     2</i>
   <i type="int" name="ISIF">     3</i>
   <i name="PSTRESS">      0.00000000</i>
   <i name="EDIFFG">      0.00100000</i>
   <i type="int" name="NFREE">     1</i>
   <i name="POTIM">      0.50000000</i>
   <i name="SMASS">     -3.00000000</i>
   <i name="SCALEE">      1.00000000</i>
  </separator>
  <separator name="ionic md" >
   <i name="TEBEG">      0.00010000</i>
   <i name="TEEND">      0.00010000</i>
   <i type="int" name="NBLOCK">     1</i>
   <i type="int" name="KBLOCK">    63</i>
   <i type="int" name="NPACO">   256</i>
   <i name="APACO">     16.00000000</i>
  </separator>
  <separator name="symmetry" >
   <i type="int" name="ISYM">     2</i>
   <i name="SYMPREC">      0.00001000</i>
  </separator>
  <separator name="dos" >
   <i type="logical" name="LORBIT"> F  </i>
   <v name="RWIGS">     -1.00000000     -1.00000000     -1.00000000</v>
   <i type="int" name="NEDOS">   301</i>
   <i name="EMIN">     10.00000000</i>
   <i name="EMAX">    -10.00000000</i>
   <i name="EFERMI">      0.00000000</i>
  </separator>
  <separator name="writing" >
   <i type="int" name="NWRITE">     2</i>
   <i type="logical" name="LWAVE"> F  </i>
   <i type="logical" name="LCHARG"> F  </i>
   <i type="logical" name="LPARD"> F  </i>
   <i type="logical" name="LVTOT"> F  </i>
   <i type="logical" name="LVHAR"> F  </i>
   <i type="logical" name="LELF"> F  </i>
   <i type="logical" name="LOPTICS"> F  </i>
   <v name="STM">      0.00000000      0.00000000      0.00000000      0.00000000      0.00000000      0.00000000      0.00000000</v>
  </separator>
  <separator name="performance" >
   <i type="int" name="NPAR">     4</i>
   <i type="int" name="NSIM">     4</i>
   <i type="int" name="NBLK">    -1</i>
   <i type="logical" name="LPLANE"> T  </i>
   <i type="logical" name="LSCALAPACK"> T  </i>
   <i type="logical" name="LSCAAWARE"> F  </i>
   <i type="logical" name="LSCALU"> F  </i>
   <i type="logical" name="LASYNC"> F  </i>
   <i type="logical" name="LORBITALREAL"> F  </i>
  </separator>
  <separator name="miscellaneous" >
   <i type="int" name="IDIOT">     3</i>
   <i type="logical" name="LMUSIC"> F  </i>
   <v name="POMASS">     26.98100000     58.69000000     47.88000000</v>
   <v name="DARWINR">      0.00000000      0.00000000      0.00000000</v>
   <v name="DARWINV">      1.00000000      1.00000000      1.00000000</v>
   <i type="logical" name="LCORR"> T  </i>
  </separator>
  <i type="logical" name="GGA_COMPAT"> T  </i>
  <i type="logical" name="LBERRY"> F  </i>
  <i type="int" name="ICORELEVEL">     0</i>
  <i type="logical" name="LDAU"> F  </i>
  <i type="int" name="I_CONSTRAINED_M">     0</i>
  <separator name="electronic exchange-correlation" >
   <i type="string" name="GGA">--</i>
   <i type="int" name="VOSKOWN">     0</i>
   <i type="logical" name="LHFCALC"> F  </i>
   <i type="string" name="PRECFOCK"></i>
   <i type="logical" name="LSYMGRAD"> F  </i>
   <i type="logical" name="LHFONE"> F  </i>
   <i type="logical" name="LRHFCALC"> F  </i>
   <i type="logical" name="LTHOMAS"> F  </i>
   <i type="logical" name="LMODELHF"> F  </i>
   <i name="ENCUT4O">     -1.00000000</i>
   <i type="int" name="EXXOEP">     0</i>
   <i type="int" name="FOURORBIT">     0</i>
   <i name="AEXX">      0.00000000</i>
   <i name="HFALPHA">      0.00000000</i>
   <i name="MCALPHA">      0.00000000</i>
   <i name="ALDAX">      1.00000000</i>
   <i name="AGGAX">      1.00000000</i>
   <i name="ALDAC">      1.00000000</i>
   <i name="AGGAC">      1.00000000</i>
   <i type="int" name="NKREDX">     1</i>
   <i type="int" name="NKREDY">     1</i>
   <i type="int" name="NKREDZ">     1</i>
   <i type="logical" name="SHIFTRED"> F  </i>
   <i type="logical" name="ODDONLY"> F  </i>
   <i type="logical" name="EVENONLY"> F  </i>
   <i type="int" name="LMAXFOCK">     0</i>
   <i type="int" name="NMAXFOCKAE">     0</i>
   <i type="logical" name="LFOCKAEDFT"> F  </i>
   <i name="HFSCREEN">      0.00000000</i>
   <i name="HFSCREENC">      0.00000000</i>
   <i type="int" name="NBANDSGWLOW">     0</i>
  </separator>
  <separator name="vdW DFT" >
   <i type="logical" name="LUSE_VDW"> F  </i>
   <i name="Zab_VDW">     -0.84910000</i>
   <i name="PARAM1">      0.12340000</i>
   <i name="PARAM2">      1.00000000</i>
   <i name="PARAM3">      0.00000000</i>
  </separator>
  <separator name="model GW" >
   <i type="int" name="MODEL_GW">     0</i>
   <i name="MODEL_EPS0">      6.95557155</i>
   <i name="MODEL_ALPHA">      1.00000000</i>
  </separator>
  <separator name="linear response parameters" >
   <i type="logical" name="LEPSILON"> F  </i>
   <i type="logical" name="LRPA"> F  </i>
   <i type="logical" name="LNABLA"> F  </i>
   <i type="logical" name="LVEL"> F  </i>
   <i type="int" name="KINTER">     0</i>
   <i name="CSHIFT">      0.10000000</i>
   <i name="OMEGAMAX">     -1.00000000</i>
   <i name="DEG_THRESHOLD">      0.00200000</i>
  </separator>
  <separator name="orbital magnetization" >
   <i type="logical" name="NUCIND"> F  </i>
   <v name="MAGPOS">      0.00000000      0.00000000      0.00000000</v>
   <i type="logical" name="LNICSALL"> T  </i>
   <i type="logical" name="ORBITALMAG"> F  </i>
   <i type="logical" name="LMAGBLOCH"> F  </i>
   <i type="logical" name="LCHIMAG"> F  </i>
   <i type="logical" name="LGAUGE"> T  </i>
   <i type="int" name="MAGATOM">     0</i>
   <v name="MAGDIPOL">      0.00000000      0.00000000      0.00000000</v>
   <v name="AVECCONST">      0.00000000      0.00000000      0.00000000</v>
  </separator>
  <separator name="response functions" >
   <i type="logical" name="LADDER"> F  </i>
   <i type="logical" name="LFXC"> F  </i>
   <i type="logical" name="LHARTREE"> T  </i>
   <i type="int" name="IBSE">     0</i>
   <v type="int" name="KPOINT">    -1     0     0     0</v>
   <i type="logical" name="LTCTE"> F  </i>
   <i type="logical" name="LTETE"> F  </i>
   <i type="logical" name="LTRIPLET"> F  </i>
   <i type="logical" name="LFXCEPS"> F  </i>
   <i type="logical" name="LFXHEG"> F  </i>
   <i type="int" name="NATURALO">     0</i>
   <i type="logical" name="L2ORDER"> F  </i>
   <i type="logical" name="LUSEW"> F  </i>
   <i name="ENCUTGW">     -2.00000000</i>
   <i name="ENCUTGWSOFT">     -2.00000000</i>
   <i name="ENCUTLF">     -1.00000000</i>
   <i type="int" name="LMAXMP2">    -1</i>
   <i name="SCISSOR">      0.00000000</i>
   <i type="int" name="NOMEGA">     0</i>
   <i type="int" name="NOMEGAR">     0</i>
   <i type="int" name="NBANDSGW">    -1</i>
   <i type="int" name="NBANDSO">    -1</i>
   <i type="int" name="NBANDSV">    -1</i>
   <i type="int" name="NELM">   100</i>
   <i type="int" name="NELMHF">     1</i>
   <i type="int" name="DIM">     3</i>
   <i type="int" name="ANTIRES">     0</i>
   <i name="OMEGAMAX">    -30.00000000</i>
   <i name="OMEGAMIN">    -30.00000000</i>
   <i name="OMEGATL">   -200.00000000</i>
   <i type="int" name="OMEGAGRID">     0</i>
   <i name="CSHIFT">     -0.10000000</i>
   <i type="logical" name="SELFENERGY"> F  </i>
   <i type="logical" name="LSPECTRAL"> F  </i>
   <i type="logical" name="LSPECTRALGW"> F  </i>
   <i type="logical" name="LSINGLES"> F  </i>
   <i type="logical" name="LFERMIGW"> F  </i>
   <i type="logical" name="ODDONLYGW"> F  </i>
   <i type="logical" name="EVENONLYGW"> F  </i>
   <i type="int" name="NKREDLFX">     1</i>
   <i type="int" name="NKREDLFY">     1</i>
   <i type="int" name="NKREDLFZ">     1</i>
   <i type="int" name="MAXMEM">  1800</i>
   <i type="int" name="TELESCOPE">     0</i>
   <i type="int" name="TAUPAR">     1</i>
   <i type="int" name="OMEGAPAR">    -1</i>
   <i name="LAMBDA">      1.00000000</i>
  </separator>
  <separator name="External order field" >
   <i name="OFIELD_KAPPA">      0.00000000</i>
   <v name="OFIELD_K">      0.00000000      0.00000000      0.00000000</v>
   <i name="OFIELD_Q6_NEAR">      0.00000000</i>
   <i name="OFIELD_Q6_FAR">      0.00000000</i>
   <i name="OFIELD_A">      0.00000000</i>
  </separator>
 </parameters>
 <atominfo>
  <atoms>      64 </atoms>
  <types>       3 </types>
  <array name="atoms" >
   <dimension dim="1">ion</dimension>
   <field type="string">element</field>
   <field type="int">atomtype</field>
   <set>
    <rc><c>Al</c><c>   1</c></rc>
    <rc><c>Al</c><c>   1</c></rc>
    <rc><c>Ni</c><c>   2</c></rc>
    <rc><c>Ni</c><c>   2</c></rc>
    <rc><c>Ni</c><c>   2</c></rc>
    <rc><c>Ni</c><c>   2</c></rc>
    <rc><c>Ni</c><c>   2</c></rc>
    <rc><c>Ni</c><c>   2</c></rc>
    <rc><c>Ni</c><c>   2</c></rc>
    <rc><c>Ni</c><c>   2</c></rc>
    <rc><c>Ni</c><c>   2</c></rc>
    <rc><c>Ni</c><c>   2</c></rc>
    <rc><c>Ni</c><c>   2</c></rc>
    <rc><c>Ni</c><c>   2</c></rc>
    <rc><c>Ni</c><c>   2</c></rc>
    <rc><c>Ni</c><c>   2</c></rc>
    <rc><c>Ni</c><c>   2</c></rc>
    <rc><c>Ni</c><c>   2</c></rc>
    <rc><c>Ni</c><c>   2</c></rc>
    <rc><c>Ni</c><c>   2</c></rc>
    <rc><c>Ni</c><c>   2</c></rc>
    <rc><c>Ni</c><c>   2</c></rc>
    <rc><c>Ni</c><c>   2</c></rc>
    <rc><c>Ni</c><c>   2</c></rc>
    <rc><c>Ni</c><c>   2</c></rc>
    <rc><c>Ni</c><c>   2</c></rc>
    <rc><c>Ni</c><c>   2</c></rc>
    <rc><c>Ni</c><c>   2</c></rc>
    <rc><c>Ni</c><c>   2</c></rc>
    <rc><c>Ni</c><c>   2</c></rc>
    <rc><c>Ni</c><c>   2</c></rc>
    <rc><c>Ni</c><c>   2</c></rc>
    <rc><c>Ni</c><c>   2</c></rc>
    <rc><c>Ni</c><c>   2</c></rc>
    <rc><c>Ni</c><c>   2</c></rc>
    <rc><c>Ni</c><c>   2</c></rc>
    <rc><c>Ni</c><c>   2</c></rc>
    <rc><c>Ni</c><c>   2</c></rc>
    <rc><c>Ni</c><c>   2</c></rc>
    <rc><c>Ni</c><c>   2</c></rc>
    <rc><c>Ni</c><c>   2</c></rc>
    <rc><c>Ni</c><c>   2</c></rc>
    <rc><c>Ni</c><c>   2</c></rc>
    <rc><c>Ni</c><c>   2</c></rc>
    <rc><c>Ni</c><c>   2</c></rc>
    <rc><c>Ni</c><c>   2</c></rc>
    <rc><c>Ni</c><c>   2</c></rc>
    <rc><c>Ni</c><c>   2</c></rc>
    <rc><c>Ni</c><c>   2</c></rc>
    <rc><c>Ni</c><c>   2</c></rc>
    <rc><c>Ti</c><c>   3</c></rc>
    <rc><c>Ti</c><c>   3</c></rc>
    <rc><c>Ti</c><c>   3</c></rc>
    <rc><c>Ti</c><c>   3</c></rc>
    <rc><c>Ti</c><c>   3</c></rc>
    <rc><c>Ti</c><c>   3</c></rc>
    <rc><c>Ti</c><c>   3</c></rc>
    <rc><c>Ti</c><c>   3</c></rc>
    <rc><c>Ti</c><c>   3</c></rc>
    <rc><c>Ti</c><c>   3</c></rc>
    <rc><c>Ti</c><c>   3</c></rc>
    <rc><c>Ti</c><c>   3</c></rc>
    <rc><c>Ti</c><c>   3</c></rc>
    <rc><c>Ti</c><c>   3</c></rc>
   </set>
  </array>
  <array name="atomtypes" >
   <dimension dim="1">type</dimension>
   <field type="int">atomspertype</field>
   <field type="string">element</field>
   <field>mass</field>
   <field>valence</field>
   <field type="string">pseudopotential</field>
   <set>
    <rc><c>   2</c><c>Al</c><c>     26.98100000</c><c>      3.00000000</c><c>  PAW_PBE Al 04Jan2001                  </c></rc>
    <rc><c>  48</c><c>Ni</c><c>     58.69000000</c><c>     10.00000000</c><c>  PAW_PBE Ni 02Aug2007                  </c></rc>
    <rc><c>  14</c><c>Ti</c><c>     47.88000000</c><c>     12.00000000</c><c>  PAW_PBE Ti_sv 26Sep2005               </c></rc>
   </set>
  </array>
 </atominfo>
 <structure name="initialpos" >
  <crystal>
   <varray name="basis" >
    <v>       5.08222548       0.00000000       0.00000000 </v>
    <v>      -2.54111274       4.40133700       0.00000000 </v>
    <v>       0.00000000       0.00000000      33.16828328 </v>
   </varray>
   <i name="volume">    741.92763214 </i>
   <varray name="rec_basis" >
    <v>       0.19676419       0.11360184       0.00000000 </v>
    <v>       0.00000000       0.22720369       0.00000000 </v>
    <v>       0.00000000       0.00000000       0.03014928 </v>
   </varray>
  </crystal>
  <varray name="positions" >
   <v>       0.33333330       0.66666670       0.93768456 </v>
   <v>       0.33333330       0.66666670       0.12481544 </v>
   <v>       0.17189123       0.34378235       0.74949501 </v>
   <v>       0.49477547       0.98955095       0.31300499 </v>
   <v>       0.49466938       0.50533062       0.81261265 </v>
   <v>       0.49477547       0.50522453       0.31300499 </v>
   <v>       0.65621765       0.82810877       0.74949501 </v>
   <v>       0.65600545       0.82800268       0.24988735 </v>
   <v>       0.17189123       0.82810877       0.74949501 </v>
   <v>       0.17199732       0.82800268       0.24988735 </v>
   <v>       0.01044905       0.50522453       0.31300499 </v>
   <v>       0.17199732       0.34399455       0.24988735 </v>
   <v>       0.99790641       0.49895320       0.68711912 </v>
   <v>       0.99840550       0.49920275       0.18726148 </v>
   <v>       0.50104680       0.00209359       0.68711912 </v>
   <v>       0.50079725       0.00159450       0.18726148 </v>
   <v>       0.50104680       0.49895320       0.68711912 </v>
   <v>       0.50079725       0.49920275       0.18726148 </v>
   <v>       0.49466938       0.98933875       0.81261265 </v>
   <v>       0.83304235       0.66608479       0.12499836 </v>
   <v>       0.01066125       0.50533062       0.81261265 </v>
   <v>       0.16561990       0.33123971       0.37538088 </v>
   <v>       0.16586945       0.33173880       0.87523852 </v>
   <v>       0.16561990       0.83438010       0.37538088 </v>
   <v>       0.16586945       0.83413055       0.87523852 </v>
   <v>       0.66876029       0.83438010       0.37538088 </v>
   <v>       0.66826120       0.83413055       0.87523852 </v>
   <v>       0.33348568       0.16674289       0.43765626 </v>
   <v>       0.33275139       0.16637575       0.93750164 </v>
   <v>       0.83325711       0.16674289       0.43765626 </v>
   <v>       0.83362425       0.16637575       0.93750164 </v>
   <v>       0.83325711       0.66651432       0.43765626 </v>
   <v>       0.83362425       0.66724861       0.93750164 </v>
   <v>       0.83340949       0.66681908       0.62484374 </v>
   <v>       0.49987777       0.50012223       0.99972683 </v>
   <v>       0.49998486       0.50001514       0.50003557 </v>
   <v>       0.49987777       0.99975554       0.99972683 </v>
   <v>       0.49998486       0.99996972       0.50003557 </v>
   <v>       0.00024446       0.50012223       0.99972683 </v>
   <v>       0.00003028       0.50001514       0.50003557 </v>
   <v>       0.16678893       0.33357776       0.06277317 </v>
   <v>       0.16668184       0.33336358       0.56246443 </v>
   <v>       0.16678893       0.83321107       0.06277317 </v>
   <v>       0.16668184       0.83331816       0.56246443 </v>
   <v>       0.66642224       0.83321107       0.06277317 </v>
   <v>       0.66663642       0.83331816       0.56246443 </v>
   <v>       0.33391521       0.16695765       0.12499836 </v>
   <v>       0.33318092       0.16659051       0.62484374 </v>
   <v>       0.83304235       0.16695765       0.12499836 </v>
   <v>       0.83340949       0.16659051       0.62484374 </v>
   <v>       0.00000000       0.00000000       0.49982586 </v>
   <v>       0.66666670       0.33333330       0.06096510 </v>
   <v>       0.66666670       0.33333330       0.56267414 </v>
   <v>       0.33333330       0.66666670       0.62539690 </v>
   <v>       0.00000000       0.00000000       0.18802742 </v>
   <v>       0.00000000       0.00000000       0.68918921 </v>
   <v>       0.66666670       0.33333330       0.24973279 </v>
   <v>       0.66666670       0.33333330       0.75233447 </v>
   <v>       0.00000000       0.00000000       0.31016553 </v>
   <v>       0.00000000       0.00000000       0.81276721 </v>
   <v>       0.66666670       0.33333330       0.37331079 </v>
   <v>       0.66666670       0.33333330       0.87447258 </v>
   <v>       0.33333330       0.66666670       0.43710310 </v>
   <v>       0.00000000       0.00000000       0.00153490 </v>
  </varray>
 </structure>
 <calculation>
  <scstep>
   <time name="diag">   49.39   49.48</time>
   <time name="diis">  206.64  207.15</time>
   <time name="orth">   14.77   14.81</time>
   <time name="total">  270.98  271.62</time>
   <energy>
    <i name="alphaZ">   3178.33028757 </i>
    <i name="ewald"> -60396.60961392 </i>
    <i name="hartreedc"> -18742.97968679 </i>
    <i name="XCdc">   2352.49839275 </i>
    <i name="pawpsdc">  64052.30531756 </i>
    <i name="pawaedc"> -66922.40966197 </i>
    <i name="eentropy">      0.00221739 </i>
    <i name="bandstr">   4246.44902515 </i>
    <i name="atom">  74067.99487448 </i>
    <i name="e_fr_energy">   1835.58115221 </i>
    <i name="e_wo_entrp">   1835.57893483 </i>
    <i name="e_0_energy">   1835.58041308 </i>
   </energy>
  </scstep>
  <scstep>
   <time name="diag">   49.55   49.64</time>
   <time name="diis">  206.59  207.07</time>
   <time name="orth">   14.80   14.84</time>
   <time name="total">  271.01  271.62</time>
   <energy>
    <i name="e_fr_energy">      6.99753707 </i>
    <i name="e_wo_entrp">      7.00719931 </i>
    <i name="e_0_energy">      7.00075781 </i>
   </energy>
  </scstep>
  <scstep>
   <time name="diag">   49.61   49.70</time>
   <time name="diis">  206.47  206.98</time>
   <time name="orth">   14.95   15.06</time>
   <time name="total">  271.11  271.81</time>
   <energy>
    <i name="e_fr_energy">   -152.46258789 </i>
    <i name="e_wo_entrp">   -152.49197359 </i>
    <i name="e_0_energy">   -152.47238312 </i>
   </energy>
  </scstep>
  <scstep>
   <time name="diag">   49.85   49.94</time>
   <time name="diis">  206.57  207.09</time>
   <time name="orth">   14.77   14.81</time>
   <time name="total">  271.27  271.92</time>
   <energy>
    <i name="e_fr_energy">   -329.05704150 </i>
    <i name="e_wo_entrp">   -329.01790102 </i>
    <i name="e_0_energy">   -329.04399467 </i>
   </energy>
  </scstep>
  <scstep>
   <time name="diag">   49.88   49.97</time>
   <time name="diis">  206.50  206.96</time>
   <time name="orth">   14.74   14.80</time>
   <time name="total">  271.20  271.81</time>
   <energy>
    <i name="e_fr_energy">   -377.77820223 </i>
    <i name="e_wo_entrp">   -377.74711390 </i>
    <i name="e_0_energy">   -377.76783945 </i>
   </energy>
  </scstep>
  <scstep>
   <time name="diag">   49.97   50.11</time>
   <time name="diis">  206.29  206.78</time>
   <time name="orth">   14.78   14.82</time>
   <time name="total">  271.11  271.78</time>
   <energy>
    <i name="e_fr_energy">   -404.32969981 </i>
    <i name="e_wo_entrp">   -404.30442985 </i>
    <i name="e_0_energy">   -404.32127649 </i>
   </energy>
  </scstep>
  <scstep>
   <time name="diag">   49.84   49.96</time>
   <time name="diis">  206.52  206.96</time>
   <time name="orth">   14.71   14.76</time>
   <time name="total">  271.14  271.75</time>
   <energy>
    <i name="e_fr_energy">   -417.65780395 </i>
    <i name="e_wo_entrp">   -417.64738521 </i>
    <i name="e_0_energy">   -417.65433104 </i>
   </energy>
  </scstep>
  <scstep>
   <time name="diag">   49.89   50.00</time>
   <time name="diis">  206.57  207.05</time>
   <time name="orth">   14.70   14.72</time>
   <time name="total">  271.24  271.84</time>
   <energy>
    <i name="e_fr_energy">   -429.51330520 </i>
    <i name="e_wo_entrp">   -429.50381712 </i>
    <i name="e_0_energy">   -429.51014251 </i>
   </energy>
  </scstep>
  <scstep>
   <time name="diag">   49.88   49.99</time>
   <time name="diis">  635.95  637.40</time>
   <time name="orth">   14.71   14.73</time>
   <time name="total">  700.61  702.19</time>
   <energy>
    <i name="e_fr_energy">   -446.51895370 </i>
    <i name="e_wo_entrp">   -446.50932137 </i>
    <i name="e_0_energy">   -446.51574292 </i>
   </energy>
  </scstep>
  <scstep>
   <time name="diag">   49.91   50.01</time>
   <time name="diis">  719.95  721.60</time>
   <time name="orth">   14.84   14.88</time>
   <time name="total">  784.76  786.56</time>
   <energy>
    <i name="e_fr_energy">   -459.73950640 </i>
    <i name="e_wo_entrp">   -459.73968270 </i>
    <i name="e_0_energy">   -459.73956517 </i>
   </energy>
  </scstep>
  <scstep>
   <time name="diag">   49.81   49.91</time>
   <time name="diis">  721.22  722.94</time>
   <time name="orth">   14.76   14.80</time>
   <time name="total">  785.86  787.72</time>
   <energy>
    <i name="e_fr_energy">   -463.83195377 </i>
    <i name="e_wo_entrp">   -463.83162034 </i>
    <i name="e_0_energy">   -463.83184262 </i>
   </energy>
  </scstep>
  <scstep>
   <time name="diag">   49.85   49.93</time>
   <time name="diis">  721.79  723.62</time>
   <time name="orth">   14.73   14.75</time>
   <time name="total">  798.50  800.45</time>
   <energy>
    <i name="e_fr_energy">   -466.69389673 </i>
    <i name="e_wo_entrp">   -466.69117654 </i>
    <i name="e_0_energy">   -466.69299000 </i>
   </energy>
  </scstep>
  <scstep>
   <time name="diag">   49.56   49.66</time>
   <time name="diis">  420.44  421.47</time>
   <time name="orth">   14.75   14.79</time>
   <time name="total">  497.05  498.24</time>
   <energy>
    <i name="e_fr_energy">   -468.93026417 </i>
    <i name="e_wo_entrp">   -468.92565273 </i>
    <i name="e_0_energy">   -468.92872702 </i>
   </energy>
  </scstep>
  <scstep>
   <time name="diag">   49.81   50.04</time>
   <time name="diis">  451.02  452.01</time>
   <time name="orth">   14.68   14.70</time>
   <time name="total">  527.80  529.07</time>
   <energy>
    <i name="e_fr_energy">   -583.11653266 </i>
    <i name="e_wo_entrp">   -583.14795098 </i>
    <i name="e_0_energy">   -583.12700543 </i>
   </energy>
  </scstep>
  <scstep>
   <time name="diag">   49.59   49.70</time>
   <time name="diis">  642.36  645.85</time>
   <time name="orth">   14.67   14.69</time>
   <time name="total">  718.92  722.58</time>
   <energy>
    <i name="e_fr_energy">  -1021.70306350 </i>
    <i name="e_wo_entrp">  -1021.66781602 </i>
    <i name="e_0_energy">  -1021.69131434 </i>
   </energy>
  </scstep>
  <scstep>
   <time name="diag">   49.54   49.72</time>
   <time name="diis">  488.86  490.28</time>
   <time name="orth">   14.90   14.96</time>
   <time name="total">  565.43  567.14</time>
   <energy>
    <i name="e_fr_energy">   -609.41849190 </i>
    <i name="e_wo_entrp">   -609.43325448 </i>
    <i name="e_0_energy">   -609.42341276 </i>
   </energy>
  </scstep>
  <scstep>
   <time name="diag">   49.35   49.48</time>
   <time name="diis">  459.99  461.25</time>
   <time name="orth">   14.63   14.65</time>
   <time name="total">  536.18  537.66</time>
   <energy>
    <i name="e_fr_energy">   -433.20166297 </i>
    <i name="e_wo_entrp">   -433.13844279 </i>
    <i name="e_0_energy">   -433.18058958 </i>
   </energy>
  </scstep>
  <scstep>
   <time name="diag">   49.46   49.58</time>
   <time name="diis">  418.26  419.38</time>
   <time name="orth">   14.65   14.78</time>
   <time name="total">  494.58  495.99</time>
   <energy>
    <i name="e_fr_energy">   -450.04481143 </i>
    <i name="e_wo_entrp">   -450.02542982 </i>
    <i name="e_0_energy">   -450.03835089 </i>
   </energy>
  </scstep>
  <scstep>
   <time name="diag">   49.50   49.63</time>
   <time name="diis">  425.45  426.58</time>
   <time name="orth">   14.64   14.68</time>
   <time name="total">  501.85  503.18</time>
   <energy>
    <i name="e_fr_energy">   -433.07475804 </i>
    <i name="e_wo_entrp">   -433.11330973 </i>
    <i name="e_0_energy">   -433.08760860 </i>
   </energy>
  </scstep>
  <scstep>
   <time name="diag">   49.40   49.51</time>
   <time name="diis">  426.48  427.53</time>
   <time name="orth">   14.61   14.63</time>
   <time name="total">  502.73  503.94</time>
   <energy>
    <i name="e_fr_energy">   -413.33183520 </i>
    <i name="e_wo_entrp">   -413.38396282 </i>
    <i name="e_0_energy">   -413.34921107 </i>
   </energy>
  </scstep>
  <scstep>
   <time name="diag">   49.45   49.56</time>
   <time name="diis">  423.30  424.72</time>
   <time name="orth">   14.64   14.68</time>
   <time name="total">  499.61  501.21</time>
   <energy>
    <i name="e_fr_energy">   -407.12638988 </i>
    <i name="e_wo_entrp">   -407.19487182 </i>
    <i name="e_0_energy">   -407.14921719 </i>
   </energy>
  </scstep>
  <scstep>
   <time name="diag">   49.47   49.59</time>
   <time name="diis">  439.22  440.41</time>
   <time name="orth">   14.66   14.71</time>
   <time name="total">  515.59  516.98</time>
   <energy>
    <i name="e_fr_energy">   -405.20992176 </i>
    <i name="e_wo_entrp">   -405.27625510 </i>
    <i name="e_0_energy">   -405.23203287 </i>
   </energy>
  </scstep>
  <scstep>
   <time name="diag">   49.26   49.36</time>
   <time name="diis">  668.55  670.62</time>
   <time name="orth">   14.73   14.77</time>
   <time name="total">  744.65  746.88</time>
   <energy>
    <i name="e_fr_energy">   -405.19061606 </i>
    <i name="e_wo_entrp">   -405.26248699 </i>
    <i name="e_0_energy">   -405.21457304 </i>
   </energy>
  </scstep>
  <scstep>
   <time name="diag">   49.26   49.38</time>
   <time name="diis">  481.67  483.26</time>
   <time name="orth">   14.67   14.72</time>
   <time name="total">  557.75  559.52</time>
   <energy>
    <i name="e_fr_energy">   -405.11388913 </i>
    <i name="e_wo_entrp">   -405.16971885 </i>
    <i name="e_0_energy">   -405.13249903 </i>
   </energy>
  </scstep>
  <scstep>
   <time name="diag">   49.60   49.77</time>
   <time name="diis">  468.84  470.26</time>
   <time name="orth">   14.67   14.74</time>
   <time name="total">  545.22  546.89</time>
   <energy>
    <i name="e_fr_energy">   -404.52775818 </i>
    <i name="e_wo_entrp">   -404.67060979 </i>
    <i name="e_0_energy">   -404.57537538 </i>
   </energy>
  </scstep>
  <scstep>
   <time name="diag">   49.88   50.02</time>
   <time name="diis">  449.67  451.04</time>
   <time name="orth">   14.68   14.71</time>
   <time name="total">  526.37  527.96</time>
   <energy>
    <i name="e_fr_energy">   -404.56251334 </i>
    <i name="e_wo_entrp">   -404.71714478 </i>
    <i name="e_0_energy">   -404.61405715 </i>
   </energy>
  </scstep>
  <scstep>
   <time name="diag">   49.44   49.64</time>
   <time name="diis">  492.42  493.71</time>
   <time name="orth">   14.67   14.69</time>
   <time name="total">  568.69  570.23</time>
   <energy>
    <i name="e_fr_energy">   -408.05688112 </i>
    <i name="e_wo_entrp">   -408.04592837 </i>
    <i name="e_0_energy">   -408.05323020 </i>
   </energy>
  </scstep>
  <scstep>
   <time name="diag">   49.38   49.48</time>
   <time name="diis">  461.87  462.92</time>
   <time name="orth">   14.66   14.68</time>
   <time name="total">  537.99  539.25</time>
   <energy>
    <i name="e_fr_energy">   -413.72985682 </i>
    <i name="e_wo_entrp">   -413.77960077 </i>
    <i name="e_0_energy">   -413.74643814 </i>
   </energy>
  </scstep>
  <scstep>
   <time name="diag">   49.50   49.59</time>
   <time name="diis">  439.60  440.75</time>
   <time name="orth">   14.72   14.76</time>
   <time name="total">  515.94  517.25</time>
   <energy>
    <i name="e_fr_energy">   -408.61734469 </i>
    <i name="e_wo_entrp">   -408.57828379 </i>
    <i name="e_0_energy">   -408.60432439 </i>
   </energy>
  </scstep>
  <scstep>
   <time name="diag">   49.34   49.48</time>
   <time name="diis">  444.95  446.13</time>
   <time name="orth">   14.61   14.68</time>
   <time name="total">  521.01  522.41</time>
   <energy>
    <i name="e_fr_energy">   -409.59990168 </i>
    <i name="e_wo_entrp">   -409.64025182 </i>
    <i name="e_0_energy">   -409.61335173 </i>
   </energy>
  </scstep>
  <scstep>
   <time name="diag">   49.98   50.07</time>
   <time name="diis">  459.39  460.20</time>
   <time name="orth">   14.72   14.76</time>
   <time name="total">  536.22  537.15</time>
   <energy>
    <i name="e_fr_energy">   -409.60584315 </i>
    <i name="e_wo_entrp">   -409.60861329 </i>
    <i name="e_0_energy">   -409.60676653 </i>
   </energy>
  </scstep>
  <scstep>
   <time name="diag">   49.55   49.63</time>
   <time name="diis">  533.15  533.94</time>
   <time name="orth">   14.67   14.68</time>
   <time name="total">  609.49  610.40</time>
   <energy>
    <i name="e_fr_energy">   -409.81140781 </i>
    <i name="e_wo_entrp">   -409.93177593 </i>
    <i name="e_0_energy">   -409.85153052 </i>
   </energy>
  </scstep>
  <scstep>
   <time name="diag">   49.65   49.71</time>
   <time name="diis">  507.93  508.99</time>
   <time name="orth">   14.67   14.77</time>
   <time name="total">  584.50  585.73</time>
   <energy>
    <i name="e_fr_energy">   -409.90277733 </i>
    <i name="e_wo_entrp">   -410.02664844 </i>
    <i name="e_0_energy">   -409.94406770 </i>
   </energy>
  </scstep>
  <scstep>
   <time name="diag">   49.99   50.08</time>
   <time name="diis">  455.00  455.79</time>
   <time name="orth">   14.68   14.70</time>
   <time name="total">  531.88  532.83</time>
   <energy>
    <i name="e_fr_energy">   -410.82364772 </i>
    <i name="e_wo_entrp">   -410.95443585 </i>
    <i name="e_0_energy">   -410.86724376 </i>
   </energy>
  </scstep>
  <scstep>
   <time name="diag">   49.96   50.04</time>
   <time name="diis">  455.90  456.85</time>
   <time name="orth">   14.66   14.67</time>
   <time name="total">  532.77  533.85</time>
   <energy>
    <i name="e_fr_energy">   -410.92844482 </i>
    <i name="e_wo_entrp">   -411.03972282 </i>
    <i name="e_0_energy">   -410.96553748 </i>
   </energy>
  </scstep>
  <scstep>
   <time name="diag">   49.65   49.71</time>
   <time name="diis">  454.29  455.31</time>
   <time name="orth">   14.68   14.71</time>
   <time name="total">  530.83  531.94</time>
   <energy>
    <i name="e_fr_energy">   -411.06716845 </i>
    <i name="e_wo_entrp">   -411.17134574 </i>
    <i name="e_0_energy">   -411.10189421 </i>
   </energy>
  </scstep>
  <scstep>
   <time name="diag">   49.90   49.98</time>
   <time name="diis">  486.01  486.99</time>
   <time name="orth">   14.64   14.75</time>
   <time name="total">  562.76  563.93</time>
   <energy>
    <i name="e_fr_energy">   -410.87147312 </i>
    <i name="e_wo_entrp">   -410.99576990 </i>
    <i name="e_0_energy">   -410.91290538 </i>
   </energy>
  </scstep>
  <scstep>
   <time name="diag">   49.95   50.04</time>
   <time name="diis">  531.38  532.54</time>
   <time name="orth">   14.74   14.77</time>
   <time name="total">  608.21  609.48</time>
   <energy>
    <i name="e_fr_energy">   -410.73329301 </i>
    <i name="e_wo_entrp">   -410.88307056 </i>
    <i name="e_0_energy">   -410.78321886 </i>
   </energy>
  </scstep>
  <scstep>
   <time name="diag">   50.13   50.29</time>
   <time name="diis">  541.30  542.39</time>
   <time name="orth">   14.71   14.73</time>
   <time name="total">  618.25  619.54</time>
   <energy>
    <i name="e_fr_energy">   -410.60317373 </i>
    <i name="e_wo_entrp">   -410.76226048 </i>
    <i name="e_0_energy">   -410.65620265 </i>
   </energy>
  </scstep>
  <scstep>
   <time name="diag">   49.92   50.03</time>
   <time name="diis">  566.10  567.62</time>
   <time name="orth">   14.69   14.70</time>
   <time name="total">  642.82  644.46</time>
   <energy>
    <i name="e_fr_energy">   -410.49397137 </i>
    <i name="e_wo_entrp">   -410.65560389 </i>
    <i name="e_0_energy">   -410.54784888 </i>
   </energy>
  </scstep>
  <scstep>
   <time name="diag">   50.03   50.08</time>
   <time name="diis">  548.52  549.25</time>
   <time name="orth">   14.72   14.74</time>
   <time name="total">  625.34  626.16</time>
   <energy>
    <i name="e_fr_energy">   -410.39778827 </i>
    <i name="e_wo_entrp">   -410.55313403 </i>
    <i name="e_0_energy">   -410.44957019 </i>
   </energy>
  </scstep>
  <scstep>
   <time name="diag">   49.93   50.04</time>
   <time name="diis">  572.97  573.58</time>
   <time name="orth">   14.73   14.74</time>
   <time name="total">  649.74  650.47</time>
   <energy>
    <i name="e_fr_energy">   -410.36023122 </i>
    <i name="e_wo_entrp">   -410.50815269 </i>
    <i name="e_0_energy">   -410.40953838 </i>
   </energy>
  </scstep>
  <scstep>
   <time name="diag">   49.93   50.00</time>
   <time name="diis">  543.89  544.62</time>
   <time name="orth">   14.70   14.71</time>
   <time name="total">  620.78  621.61</time>
   <energy>
    <i name="e_fr_energy">   -410.33386166 </i>
    <i name="e_wo_entrp">   -410.47281561 </i>
    <i name="e_0_energy">   -410.38017964 </i>
   </energy>
  </scstep>
  <scstep>
   <time name="diag">   50.26   50.33</time>
   <time name="diis">  521.79  522.40</time>
   <time name="orth">   14.70   14.71</time>
   <time name="total">  598.99  599.70</time>
   <energy>
    <i name="e_fr_energy">   -410.31154249 </i>
    <i name="e_wo_entrp">   -410.44149211 </i>
    <i name="e_0_energy">   -410.35485903 </i>
   </energy>
  </scstep>
  <scstep>
   <time name="diag">   49.97   50.01</time>
   <time name="diis">  509.59  510.39</time>
   <time name="orth">   14.69   14.74</time>
   <time name="total">  586.45  587.34</time>
   <energy>
    <i name="e_fr_energy">   -410.28685755 </i>
    <i name="e_wo_entrp">   -410.40556976 </i>
    <i name="e_0_energy">   -410.32642829 </i>
   </energy>
  </scstep>
  <scstep>
   <time name="diag">   50.01   50.05</time>
   <time name="diis">  535.07  535.90</time>
   <time name="orth">   14.70   14.70</time>
   <time name="total">  611.97  612.90</time>
   <energy>
    <i name="e_fr_energy">   -410.27675767 </i>
    <i name="e_wo_entrp">   -410.39111348 </i>
    <i name="e_0_energy">   -410.31487627 </i>
   </energy>
  </scstep>
  <scstep>
   <time name="diag">   50.23   50.28</time>
   <time name="diis">  511.29  512.30</time>
   <time name="orth">   14.67   14.70</time>
   <time name="total">  588.39  589.48</time>
   <energy>
    <i name="e_fr_energy">   -410.26920739 </i>
    <i name="e_wo_entrp">   -410.37988808 </i>
    <i name="e_0_energy">   -410.30610096 </i>
   </energy>
  </scstep>
  <scstep>
   <time name="diag">   49.75   49.83</time>
   <time name="diis">  504.30  505.06</time>
   <time name="orth">   14.70   14.70</time>
   <time name="total">  580.95  581.81</time>
   <energy>
    <i name="e_fr_energy">   -410.26746272 </i>
    <i name="e_wo_entrp">   -410.37734865 </i>
    <i name="e_0_energy">   -410.30409136 </i>
   </energy>
  </scstep>
  <scstep>
   <time name="diag">   49.74   49.80</time>
   <time name="diis">  442.03  442.99</time>
   <time name="orth">   14.73   14.77</time>
   <time name="total">  506.67  507.72</time>
   <energy>
    <i name="alphaZ">   3178.33028757 </i>
    <i name="ewald"> -60396.60961392 </i>
    <i name="hartreedc"> -17438.38472361 </i>
    <i name="XCdc">   2282.06193918 </i>
    <i name="pawpsdc">  77671.73705961 </i>
    <i name="pawaedc"> -80515.91536284 </i>
    <i name="eentropy">      0.10988745 </i>
    <i name="bandstr">    740.40810330 </i>
    <i name="atom">  74067.99487448 </i>
    <i name="e_fr_energy">   -410.26754879 </i>
    <i name="e_wo_entrp">   -410.37743624 </i>
    <i name="e_0_energy">   -410.30417794 </i>
   </energy>
  </scstep>
  <structure>
   <crystal>
    <varray name="basis" >
     <v>       5.08222548       0.00000000       0.00000000 </v>
     <v>      -2.54111274       4.40133700       0.00000000 </v>
     <v>       0.00000000       0.00000000      33.16828328 </v>
    </varray>
    <i name="volume">    741.92763214 </i>
    <varray name="rec_basis" >
     <v>       0.19676419       0.11360184       0.00000000 </v>
     <v>       0.00000000       0.22720369       0.00000000 </v>
     <v>       0.00000000       0.00000000       0.03014928 </v>
    </varray>
   </crystal>
   <varray name="positions" >
    <v>       0.33333330       0.66666670       0.93768456 </v>
    <v>       0.33333330       0.66666670       0.12481544 </v>
    <v>       0.17189123       0.34378235       0.74949501 </v>
    <v>       0.49477547       0.98955095       0.31300499 </v>
    <v>       0.49466938       0.50533062       0.81261265 </v>
    <v>       0.49477547       0.50522453       0.31300499 </v>
    <v>       0.65621765       0.82810877       0.74949501 </v>
    <v>       0.65600545       0.82800268       0.24988735 </v>
    <v>       0.17189123       0.82810877       0.74949501 </v>
    <v>       0.17199732       0.82800268       0.24988735 </v>
    <v>       0.01044905       0.50522453       0.31300499 </v>
    <v>       0.17199732       0.34399455       0.24988735 </v>
    <v>       0.99790641       0.49895320       0.68711912 </v>
    <v>       0.99840550       0.49920275       0.18726148 </v>
    <v>       0.50104680       0.00209359       0.68711912 </v>
    <v>       0.50079725       0.00159450       0.18726148 </v>
    <v>       0.50104680       0.49895320       0.68711912 </v>
    <v>       0.50079725       0.49920275       0.18726148 </v>
    <v>       0.49466938       0.98933875       0.81261265 </v>
    <v>       0.83304235       0.66608479       0.12499836 </v>
    <v>       0.01066125       0.50533062       0.81261265 </v>
    <v>       0.16561990       0.33123971       0.37538088 </v>
    <v>       0.16586945       0.33173880       0.87523852 </v>
    <v>       0.16561990       0.83438010       0.37538088 </v>
    <v>       0.16586945       0.83413055       0.87523852 </v>
    <v>       0.66876029       0.83438010       0.37538088 </v>
    <v>       0.66826120       0.83413055       0.87523852 </v>
    <v>       0.33348568       0.16674289       0.43765626 </v>
    <v>       0.33275139       0.16637575       0.93750164 </v>
    <v>       0.83325711       0.16674289       0.43765626 </v>
    <v>       0.83362425       0.16637575       0.93750164 </v>
    <v>       0.83325711       0.66651432       0.43765626 </v>
    <v>       0.83362425       0.66724861       0.93750164 </v>
    <v>       0.83340949       0.66681908       0.62484374 </v>
    <v>       0.49987777       0.50012223       0.99972683 </v>
    <v>       0.49998486       0.50001514       0.50003557 </v>
    <v>       0.49987777       0.99975554       0.99972683 </v>
    <v>       0.49998486       0.99996972       0.50003557 </v>
    <v>       0.00024446       0.50012223       0.99972683 </v>
    <v>       0.00003028       0.50001514       0.50003557 </v>
    <v>       0.16678893       0.33357776       0.06277317 </v>
    <v>       0.16668184       0.33336358       0.56246443 </v>
    <v>       0.16678893       0.83321107       0.06277317 </v>
    <v>       0.16668184       0.83331816       0.56246443 </v>
    <v>       0.66642224       0.83321107       0.06277317 </v>
    <v>       0.66663642       0.83331816       0.56246443 </v>
    <v>       0.33391521       0.16695765       0.12499836 </v>
    <v>       0.33318092       0.16659051       0.62484374 </v>
    <v>       0.83304235       0.16695765       0.12499836 </v>
    <v>       0.83340949       0.16659051       0.62484374 </v>
    <v>       0.00000000       0.00000000       0.49982586 </v>
    <v>       0.66666670       0.33333330       0.06096510 </v>
    <v>       0.66666670       0.33333330       0.56267414 </v>
    <v>       0.33333330       0.66666670       0.62539690 </v>
    <v>       0.00000000       0.00000000       0.18802742 </v>
    <v>       0.00000000       0.00000000       0.68918921 </v>
    <v>       0.66666670       0.33333330       0.24973279 </v>
    <v>       0.66666670       0.33333330       0.75233447 </v>
    <v>       0.00000000       0.00000000       0.31016553 </v>
    <v>       0.00000000       0.00000000       0.81276721 </v>
    <v>       0.66666670       0.33333330       0.37331079 </v>
    <v>       0.66666670       0.33333330       0.87447258 </v>
    <v>       0.33333330       0.66666670       0.43710310 </v>
    <v>       0.00000000       0.00000000       0.00153490 </v>
   </varray>
  </structure>
  <varray name="forces" >
   <v>       0.00000000      -0.00000000      -0.01586759 </v>
   <v>       0.00000000       0.00000000       0.01586759 </v>
   <v>      -0.00000000       0.00544337       0.00820612 </v>
   <v>       0.00000000      -0.00544337      -0.00820612 </v>
   <v>      -0.00579248       0.00334429       0.02414953 </v>
   <v>      -0.00471409       0.00272168      -0.00820612 </v>
   <v>      -0.00471409      -0.00272168       0.00820612 </v>
   <v>      -0.00579248      -0.00334429      -0.02414953 </v>
   <v>       0.00471409      -0.00272168       0.00820612 </v>
   <v>       0.00579248      -0.00334429      -0.02414953 </v>
   <v>       0.00471409       0.00272168      -0.00820612 </v>
   <v>      -0.00000000       0.00668858      -0.02414953 </v>
   <v>      -0.00117264      -0.00067702       0.01088010 </v>
   <v>      -0.00366242      -0.00211450      -0.01561690 </v>
   <v>       0.00000000       0.00135405       0.01088010 </v>
   <v>       0.00000000       0.00422900      -0.01561690 </v>
   <v>       0.00117264      -0.00067702       0.01088010 </v>
   <v>       0.00366242      -0.00211450      -0.01561690 </v>
   <v>       0.00000000      -0.00668858       0.02414953 </v>
   <v>      -0.00000000      -0.00534317      -0.01584042 </v>
   <v>       0.00579248       0.00334429       0.02414953 </v>
   <v>       0.00000000      -0.00135405      -0.01088010 </v>
   <v>       0.00000000      -0.00422900       0.01561690 </v>
   <v>      -0.00117264       0.00067702      -0.01088010 </v>
   <v>      -0.00366242       0.00211450       0.01561690 </v>
   <v>       0.00117264       0.00067702      -0.01088010 </v>
   <v>       0.00366242       0.00211450       0.01561690 </v>
   <v>       0.00019717       0.00011384      -0.00519684 </v>
   <v>      -0.00462732      -0.00267159       0.01584042 </v>
   <v>      -0.00019717       0.00011384      -0.00519684 </v>
   <v>       0.00462732      -0.00267159       0.01584042 </v>
   <v>       0.00000000      -0.00022767      -0.00519684 </v>
   <v>       0.00000000       0.00534317       0.01584042 </v>
   <v>       0.00000000       0.00022767       0.00519684 </v>
   <v>      -0.00677238       0.00391004      -0.01220046 </v>
   <v>       0.00107600      -0.00062123       0.00117986 </v>
   <v>      -0.00000000      -0.00782007      -0.01220046 </v>
   <v>       0.00000000       0.00124245       0.00117986 </v>
   <v>       0.00677238       0.00391004      -0.01220046 </v>
   <v>      -0.00107600      -0.00062123       0.00117986 </v>
   <v>       0.00000000       0.00782007       0.01220046 </v>
   <v>       0.00000000      -0.00124245      -0.00117986 </v>
   <v>       0.00677238      -0.00391004       0.01220046 </v>
   <v>      -0.00107600       0.00062123      -0.00117986 </v>
   <v>      -0.00677238      -0.00391004       0.01220046 </v>
   <v>       0.00107600       0.00062123      -0.00117986 </v>
   <v>       0.00462732       0.00267159      -0.01584042 </v>
   <v>      -0.00019717      -0.00011384       0.00519684 </v>
   <v>      -0.00462732       0.00267159      -0.01584042 </v>
   <v>       0.00019717      -0.00011384       0.00519684 </v>
   <v>       0.00000000      -0.00000000      -0.01408304 </v>
   <v>       0.00000000      -0.00000000      -0.03014391 </v>
   <v>       0.00000000       0.00000000       0.01408304 </v>
   <v>       0.00000000       0.00000000       0.01484532 </v>
   <v>       0.00000000      -0.00000000      -0.02012046 </v>
   <v>       0.00000000       0.00000000       0.00274348 </v>
   <v>       0.00000000       0.00000000       0.00770928 </v>
   <v>       0.00000000       0.00000000       0.03655310 </v>
   <v>       0.00000000       0.00000000      -0.03655310 </v>
   <v>       0.00000000      -0.00000000      -0.00770928 </v>
   <v>       0.00000000      -0.00000000      -0.00274348 </v>
   <v>       0.00000000       0.00000000       0.02012046 </v>
   <v>       0.00000000       0.00000000      -0.01484532 </v>
   <v>       0.00000000       0.00000000       0.03014391 </v>
  </varray>
  <varray name="stress" >
   <v>      10.24076424       0.00000000      -0.00000000 </v>
   <v>       0.00000000      10.24076717      -0.00000000 </v>
   <v>       0.00000000       0.00000000      10.38305327 </v>
  </varray>
  <energy>
   <i name="e_fr_energy">   -410.26754879 </i>
   <i name="e_wo_entrp">   -410.30417794 </i>
   <i name="e_0_energy">      0.10988745 </i>
  </energy>
  <time name="totalsc">27657.3927720.25</time>
 </calculation>
 <calculation>
  <scstep>
   <time name="diag">   50.39   50.46</time>
   <time name="diis">  427.67  428.24</time>
   <time name="orth">   14.67   14.67</time>
   <time name="total">  504.93  505.58</time>
   <energy>
    <i name="alphaZ">   3144.33256917 </i>
    <i name="ewald"> -60190.54806255 </i>
    <i name="hartreedc"> -17365.94794547 </i>
    <i name="XCdc">   2271.09997533 </i>
    <i name="pawpsdc">  77671.50139633 </i>
    <i name="pawaedc"> -80515.64521557 </i>
    <i name="eentropy">      0.10948488 </i>
    <i name="bandstr">    505.16966338 </i>
    <i name="atom">  74067.99487448 </i>
    <i name="e_fr_energy">   -411.93326002 </i>
    <i name="e_wo_entrp">   -412.04274490 </i>
    <i name="e_0_energy">   -411.96975498 </i>
   </energy>
  </scstep>
  <scstep>
   <time name="diag">   50.42   50.62</time>
   <time name="diis">  421.01  423.07</time>
   <time name="orth">   14.76   15.00</time>
   <time name="total">  498.24  500.81</time>
   <energy>
    <i name="e_fr_energy">   -419.13422967 </i>
    <i name="e_wo_entrp">   -419.06656640 </i>
    <i name="e_0_energy">   -419.11167525 </i>
   </energy>
  </scstep>
  <scstep>
   <time name="diag">   50.11   50.29</time>
   <time name="diis">  463.74  465.57</time>
   <time name="orth">   15.12   15.27</time>
   <time name="total">  541.10  543.29</time>
   <energy>
    <i name="e_fr_energy">   -477.03471693 </i>
    <i name="e_wo_entrp">   -477.07438250 </i>
    <i name="e_0_energy">   -477.04793878 </i>
   </energy>
  </scstep>
  <scstep>
   <time name="diag">   50.37   50.57</time>
   <time name="diis">  444.16  445.91</time>
   <time name="orth">   14.61   14.65</time>
   <time name="total">  521.18  523.23</time>
   <energy>
    <i name="e_fr_energy">   -412.71278937 </i>
    <i name="e_wo_entrp">   -412.82659191 </i>
    <i name="e_0_energy">   -412.75072355 </i>
   </energy>
  </scstep>
  <scstep>
   <time name="diag">   50.16   50.32</time>
   <time name="diis">  430.58  431.85</time>
   <time name="orth">   14.68   14.69</time>
   <time name="total">  508.04  509.51</time>
   <energy>
    <i name="e_fr_energy">   -411.47283507 </i>
    <i name="e_wo_entrp">   -411.54691724 </i>
    <i name="e_0_energy">   -411.49752913 </i>
   </energy>
  </scstep>
  <scstep>
   <time name="diag">   49.77   49.82</time>
   <time name="diis">  429.52  430.31</time>
   <time name="orth">   15.23   15.25</time>
   <time name="total">  506.68  507.55</time>
   <energy>
    <i name="e_fr_energy">   -410.47675244 </i>
    <i name="e_wo_entrp">   -410.59656170 </i>
    <i name="e_0_energy">   -410.51668886 </i>
   </energy>
  </scstep>
  <scstep>
   <time name="diag">   50.58   50.63</time>
   <time name="diis">  441.76  442.59</time>
   <time name="orth">   14.68   14.69</time>
   <time name="total">  519.21  520.12</time>
   <energy>
    <i name="e_fr_energy">   -410.39535389 </i>
    <i name="e_wo_entrp">   -410.50766732 </i>
    <i name="e_0_energy">   -410.43279170 </i>
   </energy>
  </scstep>
  <scstep>
   <time name="diag">   50.45   50.55</time>
   <time name="diis">  448.65  449.36</time>
   <time name="orth">   15.23   15.23</time>
   <time name="total">  526.49  527.35</time>
   <energy>
    <i name="e_fr_energy">   -410.30357665 </i>
    <i name="e_wo_entrp">   -410.41696117 </i>
    <i name="e_0_energy">   -410.34137149 </i>
   </energy>
  </scstep>
  <scstep>
   <time name="diag">   50.29   50.40</time>
   <time name="diis">  470.99  471.81</time>
   <time name="orth">   15.26   15.26</time>
   <time name="total">  548.74  549.70</time>
   <energy>
    <i name="e_fr_energy">   -410.28515908 </i>
    <i name="e_wo_entrp">   -410.39862519 </i>
    <i name="e_0_energy">   -410.32298112 </i>
   </energy>
  </scstep>
  <scstep>
   <time name="diag">   50.64   50.69</time>
   <time name="diis">  461.19  461.92</time>
   <time name="orth">   14.66   14.67</time>
   <time name="total">  538.91  539.73</time>
   <energy>
    <i name="e_fr_energy">   -410.28171550 </i>
    <i name="e_wo_entrp">   -410.39384058 </i>
    <i name="e_0_energy">   -410.31909052 </i>
   </energy>
  </scstep>
  <scstep>
   <time name="diag">   49.71   49.75</time>
   <time name="diis">  462.49  463.24</time>
   <time name="orth">   14.65   14.65</time>
   <time name="total">  539.06  539.89</time>
   <energy>
    <i name="e_fr_energy">   -410.27402585 </i>
    <i name="e_wo_entrp">   -410.38724150 </i>
    <i name="e_0_energy">   -410.31176440 </i>
   </energy>
  </scstep>
  <scstep>
   <time name="diag">   50.26   50.31</time>
   <time name="diis">  474.88  475.59</time>
   <time name="orth">   14.73   14.75</time>
   <time name="total">  552.07  552.85</time>
   <energy>
    <i name="e_fr_energy">   -410.27531041 </i>
    <i name="e_wo_entrp">   -410.38976036 </i>
    <i name="e_0_energy">   -410.31346039 </i>
   </energy>
  </scstep>
  <scstep>
   <time name="diag">   50.27   50.33</time>
   <time name="diis">  439.17  439.90</time>
   <time name="orth">   14.70   14.77</time>
   <time name="total">  516.74  517.62</time>
   <energy>
    <i name="e_fr_energy">   -410.27427055 </i>
    <i name="e_wo_entrp">   -410.38746583 </i>
    <i name="e_0_energy">   -410.31200231 </i>
   </energy>
  </scstep>
  <scstep>
   <time name="diag">   49.67   49.74</time>
   <time name="diis">  449.54  450.35</time>
   <time name="orth">   14.67   14.67</time>
   <time name="total">  526.12  527.04</time>
   <energy>
    <i name="e_fr_energy">   -410.27312015 </i>
    <i name="e_wo_entrp">   -410.38671180 </i>
    <i name="e_0_energy">   -410.31098404 </i>
   </energy>
  </scstep>
  <scstep>
   <time name="diag">   50.31   50.37</time>
   <time name="diis">  439.25  443.18</time>
   <time name="orth">   14.70   14.72</time>
   <time name="total">  516.87  520.91</time>
   <energy>
    <i name="e_fr_energy">   -410.27195412 </i>
    <i name="e_wo_entrp">   -410.38556715 </i>
    <i name="e_0_energy">   -410.30982513 </i>
   </energy>
  </scstep>
  <scstep>
   <time name="diag">   49.65   49.71</time>
   <time name="diis">  369.42  369.93</time>
   <time name="orth">   15.27   15.31</time>
   <time name="total">  446.54  447.17</time>
   <energy>
    <i name="e_fr_energy">   -410.27169020 </i>
    <i name="e_wo_entrp">   -410.38537622 </i>
    <i name="e_0_energy">   -410.30958554 </i>
   </energy>
  </scstep>
  <scstep>
   <time name="diag">   50.24   50.34</time>
   <time name="diis">  345.00  345.48</time>
   <time name="orth">   15.23   15.30</time>
   <time name="total">  422.63  423.30</time>
   <energy>
    <i name="e_fr_energy">   -410.27135833 </i>
    <i name="e_wo_entrp">   -410.38532558 </i>
    <i name="e_0_energy">   -410.30934741 </i>
   </energy>
  </scstep>
  <scstep>
   <time name="diag">   50.30   50.38</time>
   <time name="diis">  251.92  252.28</time>
   <time name="orth">   14.71   14.73</time>
   <time name="total">  317.10  317.56</time>
   <energy>
    <i name="alphaZ">   3144.33256917 </i>
    <i name="ewald"> -60190.54806255 </i>
    <i name="hartreedc"> -17525.88244426 </i>
    <i name="XCdc">   2279.84102537 </i>
    <i name="pawpsdc">  77193.30041657 </i>
    <i name="pawaedc"> -80037.83705452 </i>
    <i name="eentropy">      0.11386314 </i>
    <i name="bandstr">    658.41354696 </i>
    <i name="atom">  74067.99487448 </i>
    <i name="e_fr_energy">   -410.27126563 </i>
    <i name="e_wo_entrp">   -410.38512878 </i>
    <i name="e_0_energy">   -410.30922001 </i>
   </energy>
  </scstep>
  <structure>
   <crystal>
    <varray name="basis" >
     <v>       5.10039270       0.00000000      -0.00000000 </v>
     <v>      -2.55019635       4.41707028      -0.00000000 </v>
     <v>       0.00000000       0.00000000      33.28849595 </v>
    </varray>
    <i name="volume">    749.94963559 </i>
    <varray name="rec_basis" >
     <v>       0.19606333       0.11319720      -0.00000000 </v>
     <v>      -0.00000000       0.22639441      -0.00000000 </v>
     <v>       0.00000000       0.00000000       0.03004041 </v>
    </varray>
   </crystal>
   <varray name="positions" >
    <v>       0.33333330       0.66666670       0.93766148 </v>
    <v>       0.33333330       0.66666670       0.12483852 </v>
    <v>       0.17192106       0.34384202       0.74950694 </v>
    <v>       0.49474564       0.98949128       0.31299306 </v>
    <v>       0.49463272       0.50536728       0.81264778 </v>
    <v>       0.49474564       0.50525436       0.31299306 </v>
    <v>       0.65615798       0.82807894       0.74950694 </v>
    <v>       0.65593214       0.82796602       0.24985222 </v>
    <v>       0.17192106       0.82807894       0.74950694 </v>
    <v>       0.17203398       0.82796602       0.24985222 </v>
    <v>       0.01050872       0.50525436       0.31299306 </v>
    <v>       0.17203398       0.34406786       0.24985222 </v>
    <v>       0.99789157       0.49894578       0.68713495 </v>
    <v>       0.99835915       0.49917957       0.18723877 </v>
    <v>       0.50105422       0.00210843       0.68713495 </v>
    <v>       0.50082043       0.00164085       0.18723877 </v>
    <v>       0.50105422       0.49894578       0.68713495 </v>
    <v>       0.50082043       0.49917957       0.18723877 </v>
    <v>       0.49463272       0.98926544       0.81264778 </v>
    <v>       0.83301306       0.66602622       0.12497532 </v>
    <v>       0.01073456       0.50536728       0.81264778 </v>
    <v>       0.16561248       0.33122487       0.37536505 </v>
    <v>       0.16584627       0.33169245       0.87526123 </v>
    <v>       0.16561248       0.83438752       0.37536505 </v>
    <v>       0.16584627       0.83415373       0.87526123 </v>
    <v>       0.66877513       0.83438752       0.37536505 </v>
    <v>       0.66830755       0.83415373       0.87526123 </v>
    <v>       0.33348818       0.16674414       0.43764870 </v>
    <v>       0.33269282       0.16634646       0.93752468 </v>
    <v>       0.83325586       0.16674414       0.43764870 </v>
    <v>       0.83365354       0.16634646       0.93752468 </v>
    <v>       0.83325586       0.66651182       0.43764870 </v>
    <v>       0.83365354       0.66730718       0.93752468 </v>
    <v>       0.83341074       0.66682158       0.62485130 </v>
    <v>       0.49983491       0.50016509       0.99970908 </v>
    <v>       0.49999167       0.50000833       0.50003729 </v>
    <v>       0.49983491       0.99966983       0.99970908 </v>
    <v>       0.49999167       0.99998334       0.50003729 </v>
    <v>       0.00033017       0.50016509       0.99970908 </v>
    <v>       0.00001666       0.50000833       0.50003729 </v>
    <v>       0.16683179       0.33366347       0.06279092 </v>
    <v>       0.16667503       0.33334996       0.56246271 </v>
    <v>       0.16683179       0.83316821       0.06279092 </v>
    <v>       0.16667503       0.83332497       0.56246271 </v>
    <v>       0.66633653       0.83316821       0.06279092 </v>
    <v>       0.66665004       0.83332497       0.56246271 </v>
    <v>       0.33397378       0.16698694       0.12497532 </v>
    <v>       0.33317842       0.16658926       0.62485130 </v>
    <v>       0.83301306       0.16698694       0.12497532 </v>
    <v>       0.83341074       0.16658926       0.62485130 </v>
    <v>       0.00000000      -0.00000000       0.49980538 </v>
    <v>       0.66666670       0.33333330       0.06092125 </v>
    <v>       0.66666670       0.33333330       0.56269462 </v>
    <v>       0.33333330       0.66666670       0.62541849 </v>
    <v>       0.00000000      -0.00000000       0.18799816 </v>
    <v>       0.00000000       0.00000000       0.68919320 </v>
    <v>       0.66666670       0.33333330       0.24974400 </v>
    <v>       0.66666670       0.33333330       0.75238764 </v>
    <v>       0.00000000       0.00000000       0.31011236 </v>
    <v>       0.00000000      -0.00000000       0.81275600 </v>
    <v>       0.66666670       0.33333330       0.37330680 </v>
    <v>       0.66666670       0.33333330       0.87450184 </v>
    <v>       0.33333330       0.66666670       0.43708151 </v>
    <v>       0.00000000       0.00000000       0.00157875 </v>
   </varray>
  </structure>
  <varray name="forces" >
   <v>       0.00000000       0.00000000      -0.00938322 </v>
   <v>       0.00000000       0.00000000       0.00938322 </v>
   <v>      -0.00000000       0.01117775       0.00479794 </v>
   <v>       0.00000000      -0.01117775      -0.00479794 </v>
   <v>      -0.00866193       0.00500097       0.01446008 </v>
   <v>      -0.00968021       0.00558887      -0.00479794 </v>
   <v>      -0.00968021      -0.00558887       0.00479794 </v>
   <v>      -0.00866193      -0.00500097      -0.01446008 </v>
   <v>       0.00968021      -0.00558887       0.00479794 </v>
   <v>       0.00866193      -0.00500097      -0.01446008 </v>
   <v>       0.00968021       0.00558887      -0.00479794 </v>
   <v>      -0.00000000       0.01000194      -0.01446008 </v>
   <v>      -0.00159321      -0.00091984       0.00911294 </v>
   <v>      -0.00962964      -0.00555968      -0.00414526 </v>
   <v>       0.00000000       0.00183968       0.00911294 </v>
   <v>      -0.00000000       0.01111935      -0.00414526 </v>
   <v>       0.00159321      -0.00091984       0.00911294 </v>
   <v>       0.00962964      -0.00555968      -0.00414526 </v>
   <v>       0.00000000      -0.01000194       0.01446008 </v>
   <v>       0.00000000      -0.00192301      -0.00779333 </v>
   <v>       0.00866193       0.00500097       0.01446008 </v>
   <v>       0.00000000      -0.00183968      -0.00911294 </v>
   <v>       0.00000000      -0.01111935       0.00414526 </v>
   <v>      -0.00159321       0.00091984      -0.00911294 </v>
   <v>      -0.00962964       0.00555968       0.00414526 </v>
   <v>       0.00159321       0.00091984      -0.00911294 </v>
   <v>       0.00962964       0.00555968       0.00414526 </v>
   <v>      -0.00147719      -0.00085286      -0.00311372 </v>
   <v>      -0.00166538      -0.00096151       0.00779333 </v>
   <v>       0.00147719      -0.00085286      -0.00311372 </v>
   <v>       0.00166538      -0.00096151       0.00779333 </v>
   <v>       0.00000000       0.00170572      -0.00311372 </v>
   <v>       0.00000000       0.00192301       0.00779333 </v>
   <v>       0.00000000      -0.00170572       0.00311372 </v>
   <v>      -0.00222925       0.00128706      -0.00577650 </v>
   <v>       0.00062183      -0.00035901      -0.00007036 </v>
   <v>       0.00000000      -0.00257412      -0.00577650 </v>
   <v>       0.00000000       0.00071802      -0.00007036 </v>
   <v>       0.00222925       0.00128706      -0.00577650 </v>
   <v>      -0.00062183      -0.00035901      -0.00007036 </v>
   <v>       0.00000000       0.00257412       0.00577650 </v>
   <v>       0.00000000      -0.00071802       0.00007036 </v>
   <v>       0.00222925      -0.00128706       0.00577650 </v>
   <v>      -0.00062183       0.00035901       0.00007036 </v>
   <v>      -0.00222925      -0.00128706       0.00577650 </v>
   <v>       0.00062183       0.00035901       0.00007036 </v>
   <v>       0.00166538       0.00096151      -0.00779333 </v>
   <v>       0.00147719       0.00085286       0.00311372 </v>
   <v>      -0.00166538       0.00096151      -0.00779333 </v>
   <v>      -0.00147719       0.00085286       0.00311372 </v>
   <v>       0.00000000       0.00000000      -0.00884608 </v>
   <v>       0.00000000       0.00000000      -0.04141851 </v>
   <v>       0.00000000       0.00000000       0.00884608 </v>
   <v>       0.00000000       0.00000000       0.01145613 </v>
   <v>       0.00000000       0.00000000      -0.02767066 </v>
   <v>       0.00000000       0.00000000       0.01204586 </v>
   <v>       0.00000000       0.00000000      -0.01422783 </v>
   <v>       0.00000000       0.00000000       0.04507168 </v>
   <v>       0.00000000       0.00000000      -0.04507168 </v>
   <v>       0.00000000       0.00000000       0.01422783 </v>
   <v>       0.00000000       0.00000000      -0.01204586 </v>
   <v>       0.00000000       0.00000000       0.02767066 </v>
   <v>       0.00000000       0.00000000      -0.01145613 </v>
   <v>       0.00000000       0.00000000       0.04141851 </v>
  </varray>
  <varray name="stress" >
   <v>      -7.01921227       0.00000000       0.00000000 </v>
   <v>       0.00000000      -7.01921429      -0.00000000 </v>
   <v>      -0.00000000       0.00000000      -7.18479671 </v>
  </varray>
  <energy>
   <i name="e_fr_energy">   -410.27126563 </i>
   <i name="e_wo_entrp">   -410.30922001 </i>
   <i name="e_0_energy">      0.11386314 </i>
  </energy>
  <time name="totalsc">10474.8310500.67</time>
 </calculation>
 <calculation>
  <scstep>
   <time name="diag">   49.44   49.62</time>
   <time name="diis">  430.77  432.03</time>
   <time name="orth">   14.71   14.77</time>
   <time name="total">  507.73  509.25</time>
   <energy>
    <i name="alphaZ">   3160.76067069 </i>
[...]
       <r>    16.4170    -0.0000   416.0000 </r>
       <r>    16.6467     0.0000   416.0000 </r>
       <r>    16.8765     0.0000   416.0000 </r>
       <r>    17.1062     0.0000   416.0000 </r>
       <r>    17.3360     0.0000   416.0000 </r>
       <r>    17.5658     0.0000   416.0000 </r>
       <r>    17.7955     0.0000   416.0000 </r>
       <r>    18.0253     0.0000   416.0000 </r>
       <r>    18.2550     0.0000   416.0000 </r>
      </set>
      <set comment="spin 2">
       <r>   -50.6713     0.0000     0.0000 </r>
       <r>   -50.4416     0.0000     0.0000 </r>
       <r>   -50.2118     0.0000     0.0000 </r>
       <r>   -49.9821     0.0000     0.0000 </r>
       <r>   -49.7523     0.0000     0.0000 </r>
       <r>   -49.5226     0.0000     0.0000 </r>
       <r>   -49.2928    -0.0000    -0.0000 </r>
       <r>   -49.0631    -0.0000    -0.0000 </r>
       <r>   -48.8333    -0.0000    -0.0000 </r>
       <r>   -48.6036    -0.0000    -0.0000 </r>
       <r>   -48.3738    -0.0000    -0.0000 </r>
       <r>   -48.1440    -0.0010    -0.0002 </r>
       <r>   -47.9143    -0.1755    -0.0405 </r>
       <r>   -47.6845    -0.1887    -0.0839 </r>
       <r>   -47.4548    17.0204     3.8266 </r>
       <r>   -47.2250    31.2547    11.0075 </r>
       <r>   -46.9953    13.8781    14.1961 </r>
       <r>   -46.7655    -0.7590    14.0217 </r>
       <r>   -46.5358    -0.0940    14.0001 </r>
       <r>   -46.3060    -0.0004    14.0000 </r>
       <r>   -46.0763    -0.0000    14.0000 </r>
       <r>   -45.8465    -0.0000    14.0000 </r>
       <r>   -45.6167     0.0000    14.0000 </r>
       <r>   -45.3870     0.0000    14.0000 </r>
       <r>   -45.1572     0.0000    14.0000 </r>
       <r>   -44.9275     0.0000    14.0000 </r>
       <r>   -44.6977     0.0000    14.0000 </r>
       <r>   -44.4680     0.0000    14.0000 </r>
       <r>   -44.2382     0.0000    14.0000 </r>
       <r>   -44.0085     0.0000    14.0000 </r>
       <r>   -43.7787     0.0000    14.0000 </r>
       <r>   -43.5490     0.0000    14.0000 </r>
       <r>   -43.3192     0.0000    14.0000 </r>
       <r>   -43.0894     0.0000    14.0000 </r>
       <r>   -42.8597     0.0000    14.0000 </r>
       <r>   -42.6299     0.0000    14.0000 </r>
       <r>   -42.4002     0.0000    14.0000 </r>
       <r>   -42.1704     0.0000    14.0000 </r>
       <r>   -41.9407     0.0000    14.0000 </r>
       <r>   -41.7109     0.0000    14.0000 </r>
       <r>   -41.4812     0.0000    14.0000 </r>
       <r>   -41.2514     0.0000    14.0000 </r>
       <r>   -41.0217     0.0000    14.0000 </r>
       <r>   -40.7919     0.0000    14.0000 </r>
       <r>   -40.5621     0.0000    14.0000 </r>
       <r>   -40.3324     0.0000    14.0000 </r>
       <r>   -40.1026     0.0000    14.0000 </r>
       <r>   -39.8729     0.0000    14.0000 </r>
       <r>   -39.6431     0.0000    14.0000 </r>
       <r>   -39.4134     0.0000    14.0000 </r>
       <r>   -39.1836     0.0000    14.0000 </r>
       <r>   -38.9539     0.0000    14.0000 </r>
       <r>   -38.7241     0.0000    14.0000 </r>
       <r>   -38.4944     0.0000    14.0000 </r>
       <r>   -38.2646     0.0000    14.0000 </r>
       <r>   -38.0348     0.0000    14.0000 </r>
       <r>   -37.8051     0.0000    14.0000 </r>
       <r>   -37.5753     0.0000    14.0000 </r>
       <r>   -37.3456     0.0000    14.0000 </r>
       <r>   -37.1158     0.0000    14.0000 </r>
       <r>   -36.8861     0.0000    14.0000 </r>
       <r>   -36.6563     0.0000    14.0000 </r>
       <r>   -36.4266     0.0000    14.0000 </r>
       <r>   -36.1968     0.0000    14.0000 </r>
       <r>   -35.9671     0.0000    14.0000 </r>
       <r>   -35.7373     0.0000    14.0000 </r>
       <r>   -35.5075     0.0000    14.0000 </r>
       <r>   -35.2778     0.0000    14.0000 </r>
       <r>   -35.0480     0.0000    14.0000 </r>
       <r>   -34.8183     0.0000    14.0000 </r>
       <r>   -34.5885     0.0000    14.0000 </r>
       <r>   -34.3588     0.0000    14.0000 </r>
       <r>   -34.1290     0.0000    14.0000 </r>
       <r>   -33.8993     0.0000    14.0000 </r>
       <r>   -33.6695     0.0000    14.0000 </r>
       <r>   -33.4398     0.0000    14.0000 </r>
       <r>   -33.2100     0.0000    14.0000 </r>
       <r>   -32.9802     0.0000    14.0000 </r>
       <r>   -32.7505     0.0000    14.0000 </r>
       <r>   -32.5207     0.0000    14.0000 </r>
       <r>   -32.2910     0.0000    14.0000 </r>
       <r>   -32.0612     0.0000    14.0000 </r>
       <r>   -31.8315     0.0000    14.0000 </r>
       <r>   -31.6017     0.0000    14.0000 </r>
       <r>   -31.3720     0.0000    14.0000 </r>
       <r>   -31.1422     0.0000    14.0000 </r>
       <r>   -30.9125     0.0000    14.0000 </r>
       <r>   -30.6827     0.0000    14.0000 </r>
       <r>   -30.4529     0.0000    14.0000 </r>
       <r>   -30.2232     0.0000    14.0000 </r>
       <r>   -29.9934     0.0000    14.0000 </r>
       <r>   -29.7637     0.0000    14.0000 </r>
       <r>   -29.5339     0.0000    14.0000 </r>
       <r>   -29.3042     0.0000    14.0000 </r>
       <r>   -29.0744     0.0000    14.0000 </r>
       <r>   -28.8447     0.0000    14.0000 </r>
       <r>   -28.6149     0.0000    14.0000 </r>
       <r>   -28.3852     0.0000    14.0000 </r>
       <r>   -28.1554     0.0000    14.0000 </r>
       <r>   -27.9256     0.0000    14.0000 </r>
       <r>   -27.6959     0.0000    14.0000 </r>
       <r>   -27.4661     0.0000    14.0000 </r>
       <r>   -27.2364     0.0000    14.0000 </r>
       <r>   -27.0066     0.0000    14.0000 </r>
       <r>   -26.7769     0.0000    14.0000 </r>
       <r>   -26.5471     0.0000    14.0000 </r>
       <r>   -26.3174     0.0000    14.0000 </r>
       <r>   -26.0876     0.0000    14.0000 </r>
       <r>   -25.8579     0.0000    14.0000 </r>
       <r>   -25.6281    -0.0000    14.0000 </r>
       <r>   -25.3983    -0.0000    14.0000 </r>
       <r>   -25.1686    -0.0000    14.0000 </r>
       <r>   -24.9388    -0.0000    14.0000 </r>
       <r>   -24.7091    -0.0000    14.0000 </r>
       <r>   -24.4793    -0.0005    13.9999 </r>
       <r>   -24.2496    -0.1770    13.9592 </r>
       <r>   -24.0198    -2.2905    13.4330 </r>
       <r>   -23.7901    31.0409    20.5648 </r>
       <r>   -23.5603    89.3199    41.0864 </r>
       <r>   -23.3306    64.1019    55.8141 </r>
       <r>   -23.1008     1.6454    56.1921 </r>
       <r>   -22.8710    -0.8288    56.0017 </r>
       <r>   -22.6413    -0.0075    56.0000 </r>
       <r>   -22.4115    -0.0000    56.0000 </r>
       <r>   -22.1818    -0.0000    56.0000 </r>
       <r>   -21.9520     0.0000    56.0000 </r>
       <r>   -21.7223     0.0000    56.0000 </r>
       <r>   -21.4925     0.0000    56.0000 </r>
       <r>   -21.2628     0.0000    56.0000 </r>
       <r>   -21.0330     0.0000    56.0000 </r>
       <r>   -20.8033     0.0000    56.0000 </r>
       <r>   -20.5735     0.0000    56.0000 </r>
       <r>   -20.3437     0.0000    56.0000 </r>
       <r>   -20.1140     0.0000    56.0000 </r>
       <r>   -19.8842     0.0000    56.0000 </r>
       <r>   -19.6545     0.0000    56.0000 </r>
       <r>   -19.4247     0.0000    56.0000 </r>
       <r>   -19.1950     0.0000    56.0000 </r>
       <r>   -18.9652     0.0000    56.0000 </r>
       <r>   -18.7355     0.0000    56.0000 </r>
       <r>   -18.5057     0.0000    56.0000 </r>
       <r>   -18.2760     0.0000    56.0000 </r>
       <r>   -18.0462     0.0000    56.0000 </r>
       <r>   -17.8164     0.0000    56.0000 </r>
       <r>   -17.5867     0.0000    56.0000 </r>
       <r>   -17.3569     0.0000    56.0000 </r>
       <r>   -17.1272     0.0000    56.0000 </r>
       <r>   -16.8974     0.0000    56.0000 </r>
       <r>   -16.6677     0.0000    56.0000 </r>
       <r>   -16.4379     0.0000    56.0000 </r>
       <r>   -16.2082     0.0000    56.0000 </r>
       <r>   -15.9784     0.0000    56.0000 </r>
       <r>   -15.7487     0.0000    56.0000 </r>
       <r>   -15.5189     0.0000    56.0000 </r>
       <r>   -15.2891     0.0000    56.0000 </r>
       <r>   -15.0594     0.0000    56.0000 </r>
       <r>   -14.8296     0.0000    56.0000 </r>
       <r>   -14.5999     0.0000    56.0000 </r>
       <r>   -14.3701     0.0000    56.0000 </r>
       <r>   -14.1404     0.0000    56.0000 </r>
       <r>   -13.9106     0.0000    56.0000 </r>
       <r>   -13.6809     0.0000    56.0000 </r>
       <r>   -13.4511     0.0000    56.0000 </r>
       <r>   -13.2214     0.0000    56.0000 </r>
       <r>   -12.9916     0.0000    56.0000 </r>
       <r>   -12.7618     0.0000    56.0000 </r>
       <r>   -12.5321     0.0000    56.0000 </r>
       <r>   -12.3023     0.0000    56.0000 </r>
       <r>   -12.0726     0.0000    56.0000 </r>
       <r>   -11.8428     0.0000    56.0000 </r>
       <r>   -11.6131     0.0000    56.0000 </r>
       <r>   -11.3833     0.0000    56.0000 </r>
       <r>   -11.1536     0.0000    56.0000 </r>
       <r>   -10.9238     0.0000    56.0000 </r>
       <r>   -10.6941     0.0000    56.0000 </r>
       <r>   -10.4643     0.0000    56.0000 </r>
       <r>   -10.2345     0.0000    56.0000 </r>
       <r>   -10.0048     0.0000    56.0000 </r>
       <r>    -9.7750     0.0000    56.0000 </r>
       <r>    -9.5453     0.0000    56.0000 </r>
       <r>    -9.3155     0.0000    56.0000 </r>
       <r>    -9.0858     0.0000    56.0000 </r>
       <r>    -8.8560     0.0000    56.0000 </r>
       <r>    -8.6263     0.0000    56.0000 </r>
       <r>    -8.3965     0.0000    56.0000 </r>
       <r>    -8.1668     0.0000    56.0000 </r>
       <r>    -7.9370     0.0000    56.0000 </r>
       <r>    -7.7072     0.0000    56.0000 </r>
       <r>    -7.4775     0.0000    56.0000 </r>
       <r>    -7.2477     0.0000    56.0000 </r>
       <r>    -7.0180     0.0000    56.0000 </r>
       <r>    -6.7882     0.0000    56.0000 </r>
       <r>    -6.5585     0.0000    56.0000 </r>
       <r>    -6.3287     0.0000    56.0000 </r>
       <r>    -6.0990     0.0000    56.0000 </r>
       <r>    -5.8692     0.0000    56.0000 </r>
       <r>    -5.6395     0.0000    56.0000 </r>
       <r>    -5.4097     0.0000    56.0000 </r>
       <r>    -5.1799     0.0000    56.0000 </r>
       <r>    -4.9502     0.0000    56.0000 </r>
       <r>    -4.7204     0.0000    56.0000 </r>
       <r>    -4.4907     0.0000    56.0000 </r>
       <r>    -4.2609     0.0000    56.0000 </r>
       <r>    -4.0312     0.0000    56.0000 </r>
       <r>    -3.8014     0.0000    56.0000 </r>
       <r>    -3.5717     0.0000    56.0000 </r>
       <r>    -3.3419     0.0000    56.0000 </r>
       <r>    -3.1122     0.0000    56.0000 </r>
       <r>    -2.8824     0.0000    56.0000 </r>
       <r>    -2.6526     0.0000    56.0000 </r>
       <r>    -2.4229     0.0000    56.0000 </r>
       <r>    -2.1931     0.0000    56.0000 </r>
       <r>    -1.9634     0.0000    56.0000 </r>
       <r>    -1.7336     0.0000    56.0000 </r>
       <r>    -1.5039     0.0000    56.0000 </r>
       <r>    -1.2741     0.0000    56.0000 </r>
       <r>    -1.0444     0.0000    56.0000 </r>
       <r>    -0.8146    -0.0000    56.0000 </r>
       <r>    -0.5849    -0.0000    56.0000 </r>
       <r>    -0.3551    -0.0000    56.0000 </r>
       <r>    -0.1253    -0.0000    56.0000 </r>
       <r>     0.1044    -0.0000    56.0000 </r>
       <r>     0.3342    -0.0000    56.0000 </r>
       <r>     0.5639    -0.0015    55.9996 </r>
       <r>     0.7937    -0.0102    55.9973 </r>
       <r>     1.0234     0.1788    56.0384 </r>
       <r>     1.2532     0.6626    56.1906 </r>
       <r>     1.4829     1.2310    56.4734 </r>
       <r>     1.7127     1.6425    56.8508 </r>
       <r>     1.9424     1.9984    57.3099 </r>
       <r>     2.1722     2.4010    57.8615 </r>
       <r>     2.4020     2.9337    58.5356 </r>
       <r>     2.6317     3.4950    59.3386 </r>
       <r>     2.8615     3.0624    60.0422 </r>
       <r>     3.0912     2.6372    60.6481 </r>
       <r>     3.3210     3.1031    61.3610 </r>
       <r>     3.5507     4.1216    62.3080 </r>
       <r>     3.7805     5.1234    63.4851 </r>
       <r>     4.0102     5.4220    64.7309 </r>
       <r>     4.2400     5.8191    66.0678 </r>
       <r>     4.4697     6.5736    67.5781 </r>
       <r>     4.6995     7.6069    69.3258 </r>
       <r>     4.9293     9.0518    71.4055 </r>
       <r>     5.1590    12.9759    74.3868 </r>
       <r>     5.3888    20.0870    79.0019 </r>
       <r>     5.6185    23.8668    84.4854 </r>
       <r>     5.8483    27.4983    90.8033 </r>
       <r>     6.0780    33.7596    98.5597 </r>
       <r>     6.3078    45.7103   109.0618 </r>
       <r>     6.5375    54.0345   121.4765 </r>
       <r>     6.7673    61.7327   135.6599 </r>
       <r>     6.9970    56.3197   148.5996 </r>
       <r>     7.2268    59.1979   162.2006 </r>
       <r>     7.4566    65.0928   177.1559 </r>
       <r>     7.6863    69.1030   193.0326 </r>
       <r>     7.9161    83.2066   212.1497 </r>
       <r>     8.1458    84.7866   231.6299 </r>
       <r>     8.3756    87.0028   251.6191 </r>
       <r>     8.6053    81.4022   270.3217 </r>
       <r>     8.8351    79.2763   288.5357 </r>
       <r>     9.0648    61.2756   302.6141 </r>
       <r>     9.2946    51.6495   314.4808 </r>
       <r>     9.5243    34.3218   322.3664 </r>
       <r>     9.7541    17.4505   326.3757 </r>
       <r>     9.9839     5.0624   327.5388 </r>
       <r>    10.2136     8.2671   329.4382 </r>
       <r>    10.4434    19.7274   333.9707 </r>
       <r>    10.6731    51.4389   345.7890 </r>
       <r>    10.9029    60.6264   359.7182 </r>
       <r>    11.1326    43.4726   369.7062 </r>
       <r>    11.3624    27.1210   375.9374 </r>
       <r>    11.5921    25.1144   381.7076 </r>
       <r>    11.8219    23.9149   387.2021 </r>
       <r>    12.0516    19.7792   391.7465 </r>
       <r>    12.2814    13.7968   394.9164 </r>
       <r>    12.5112    11.3589   397.5261 </r>
       <r>    12.7409    10.8467   400.0182 </r>
       <r>    12.9707    10.7819   402.4954 </r>
       <r>    13.2004     9.7437   404.7340 </r>
       <r>    13.4302    11.0508   407.2730 </r>
       <r>    13.6599    11.0901   409.8210 </r>
       <r>    13.8897     9.0845   411.9082 </r>
       <r>    14.1194     7.3730   413.6022 </r>
       <r>    14.3492     5.2364   414.8053 </r>
       <r>    14.5789     3.2579   415.5538 </r>
       <r>    14.8087     1.3367   415.8609 </r>
       <r>    15.0385     0.5383   415.9846 </r>
       <r>    15.2682     0.0753   416.0019 </r>
       <r>    15.4980    -0.0074   416.0002 </r>
       <r>    15.7277    -0.0007   416.0000 </r>
       <r>    15.9575    -0.0000   416.0000 </r>
       <r>    16.1872    -0.0000   416.0000 </r>
       <r>    16.4170    -0.0000   416.0000 </r>
       <r>    16.6467     0.0000   416.0000 </r>
       <r>    16.8765     0.0000   416.0000 </r>
       <r>    17.1062     0.0000   416.0000 </r>
       <r>    17.3360     0.0000   416.0000 </r>
       <r>    17.5658     0.0000   416.0000 </r>
       <r>    17.7955     0.0000   416.0000 </r>
       <r>    18.0253     0.0000   416.0000 </r>
       <r>    18.2550     0.0000   416.0000 </r>
      </set>
     </set>
    </array>
   </total>
  </dos>
 </calculation>
 <structure name="finalpos" >
  <crystal>
   <varray name="basis" >
    <v>       5.09158155       0.00000000      -0.00000000 </v>
    <v>      -2.54579078       4.40943960      -0.00000000 </v>
    <v>       0.00000000       0.00000000      33.23019250 </v>
   </varray>
   <i name="volume">    746.05176099 </i>
   <varray name="rec_basis" >
    <v>       0.19640263       0.11339309      -0.00000000 </v>
    <v>      -0.00000000       0.22678619      -0.00000000 </v>
    <v>       0.00000000       0.00000000       0.03009311 </v>
   </varray>
  </crystal>
  <varray name="positions" >
   <v>       0.33333330       0.66666670       0.93767263 </v>
   <v>       0.33333330       0.66666670       0.12482737 </v>
   <v>       0.17190664       0.34381318       0.74950117 </v>
   <v>       0.49476006       0.98952012       0.31299883 </v>
   <v>       0.49465044       0.50534956       0.81263080 </v>
   <v>       0.49476006       0.50523994       0.31299883 </v>
   <v>       0.65618682       0.82809336       0.74950117 </v>
   <v>       0.65596757       0.82798374       0.24986920 </v>
   <v>       0.17190664       0.82809336       0.74950117 </v>
   <v>       0.17201626       0.82798374       0.24986920 </v>
   <v>       0.01047988       0.50523994       0.31299883 </v>
   <v>       0.17201626       0.34403243       0.24986920 </v>
   <v>       0.99789874       0.49894937       0.68712730 </v>
   <v>       0.99838155       0.49919078       0.18724975 </v>
   <v>       0.50105063       0.00210126       0.68712730 </v>
   <v>       0.50080922       0.00161845       0.18724975 </v>
   <v>       0.50105063       0.49894937       0.68712730 </v>
   <v>       0.50080922       0.49919078       0.18724975 </v>
   <v>       0.49465044       0.98930087       0.81263080 </v>
   <v>       0.83302721       0.66605453       0.12498646 </v>
   <v>       0.01069913       0.50534956       0.81263080 </v>
   <v>       0.16561607       0.33123204       0.37537270 </v>
   <v>       0.16585748       0.33171485       0.87525025 </v>
   <v>       0.16561607       0.83438393       0.37537270 </v>
   <v>       0.16585748       0.83414252       0.87525025 </v>
   <v>       0.66876796       0.83438393       0.37537270 </v>
   <v>       0.66828515       0.83414252       0.87525025 </v>
   <v>       0.33348697       0.16674353       0.43765236 </v>
   <v>       0.33272113       0.16636061       0.93751354 </v>
   <v>       0.83325647       0.16674353       0.43765236 </v>
   <v>       0.83363939       0.16636061       0.93751354 </v>
   <v>       0.83325647       0.66651303       0.43765236 </v>
   <v>       0.83363939       0.66727887       0.93751354 </v>
   <v>       0.83341013       0.66682037       0.62484764 </v>
   <v>       0.49985562       0.50014438       0.99971766 </v>
   <v>       0.49998838       0.50001162       0.50003646 </v>
   <v>       0.49985562       0.99971125       0.99971766 </v>
   <v>       0.49998838       0.99997676       0.50003646 </v>
   <v>       0.00028875       0.50014438       0.99971766 </v>
   <v>       0.00002324       0.50001162       0.50003646 </v>
   <v>       0.16681108       0.33362205       0.06278234 </v>
   <v>       0.16667832       0.33335654       0.56246354 </v>
   <v>       0.16681108       0.83318892       0.06278234 </v>
   <v>       0.16667832       0.83332168       0.56246354 </v>
   <v>       0.66637795       0.83318892       0.06278234 </v>
   <v>       0.66664346       0.83332168       0.56246354 </v>
   <v>       0.33394547       0.16697279       0.12498646 </v>
   <v>       0.33317963       0.16658987       0.62484764 </v>
   <v>       0.83302721       0.16697279       0.12498646 </v>
   <v>       0.83341013       0.16658987       0.62484764 </v>
   <v>       0.00000000      -0.00000000       0.49981528 </v>
   <v>       0.66666670       0.33333330       0.06094244 </v>
   <v>       0.66666670       0.33333330       0.56268472 </v>
   <v>       0.33333330       0.66666670       0.62540806 </v>
   <v>       0.00000000      -0.00000000       0.18801230 </v>
   <v>       0.00000000       0.00000000       0.68919127 </v>
   <v>       0.66666670       0.33333330       0.24973859 </v>
   <v>       0.66666670       0.33333330       0.75236194 </v>
   <v>       0.00000000      -0.00000000       0.31013806 </v>
   <v>       0.00000000      -0.00000000       0.81276141 </v>
   <v>       0.66666670       0.33333330       0.37330873 </v>
   <v>       0.66666670       0.33333330       0.87448770 </v>
   <v>       0.33333330       0.66666670       0.43709194 </v>
   <v>       0.00000000       0.00000000       0.00155756 </v>
  </varray>
 </structure>
</modeling>
