Test of VASP submission                 
           1
     5.100393    0.000000   -0.000000
    -2.550196    4.417070   -0.000000
     0.000000    0.000000   33.288496
   Al   Ni   Ti
   2  48  14
Direct configuration=     1
   0.33333330  0.66666670  0.93768456
   0.33333330  0.66666670  0.12481544
   0.17189123  0.34378235  0.74949501
   0.49477547  0.98955095  0.31300499
   0.49466938  0.50533062  0.81261265
   0.49477547  0.50522453  0.31300499
   0.65621765  0.82810877  0.74949501
   0.65600545  0.82800268  0.24988735
   0.17189123  0.82810877  0.74949501
   0.17199732  0.82800268  0.24988735
   0.01044905  0.50522453  0.31300499
   0.17199732  0.34399455  0.24988735
   0.99790641  0.49895320  0.68711912
   0.99840550  0.49920275  0.18726148
   0.50104680  0.00209359  0.68711912
   0.50079725  0.00159450  0.18726148
   0.50104680  0.49895320  0.68711912
   0.50079725  0.49920275  0.18726148
   0.49466938  0.98933875  0.81261265
   0.83304235  0.66608479  0.12499836
   0.01066125  0.50533062  0.81261265
   0.16561990  0.33123971  0.37538088
   0.16586945  0.33173880  0.87523852
   0.16561990  0.83438010  0.37538088
   0.16586945  0.83413055  0.87523852
   0.66876029  0.83438010  0.37538088
   0.66826120  0.83413055  0.87523852
   0.33348568  0.16674289  0.43765626
   0.33275139  0.16637575  0.93750164
   0.83325711  0.16674289  0.43765626
   0.83362425  0.16637575  0.93750164
   0.83325711  0.66651432  0.43765626
   0.83362425  0.66724861  0.93750164
   0.83340949  0.66681908  0.62484374
   0.49987777  0.50012223  0.99972683
   0.49998486  0.50001514  0.50003557
   0.49987777  0.99975554  0.99972683
   0.49998486  0.99996972  0.50003557
   0.00024446  0.50012223  0.99972683
   0.00003028  0.50001514  0.50003557
   0.16678893  0.33357776  0.06277317
   0.16668184  0.33336358  0.56246443
   0.16678893  0.83321107  0.06277317
   0.16668184  0.83331816  0.56246443
   0.66642224  0.83321107  0.06277317
   0.66663642  0.83331816  0.56246443
   0.33391521  0.16695765  0.12499836
   0.33318092  0.16659051  0.62484374
   0.83304235  0.16695765  0.12499836
   0.83340949  0.16659051  0.62484374
   0.00000000  0.00000000  0.49982586
   0.66666670  0.33333330  0.06096510
   0.66666670  0.33333330  0.56267414
   0.33333330  0.66666670  0.62539690
   0.00000000  0.00000000  0.18802742
   0.00000000  0.00000000  0.68918921
   0.66666670  0.33333330  0.24973279
   0.66666670  0.33333330  0.75233447
   0.00000000  0.00000000  0.31016553
   0.00000000  0.00000000  0.81276721
   0.66666670  0.33333330  0.37331079
   0.66666670  0.33333330  0.87447258
   0.33333330  0.66666670  0.43710310
   0.00000000  0.00000000  0.00153490
Test of VASP submission                 
           1
     5.091582    0.000000   -0.000000
    -2.545791    4.409440   -0.000000
     0.000000    0.000000   33.230193
   Al   Ni   Ti
   2  48  14
Direct configuration=     2
   0.33333330  0.66666670  0.93766148
   0.33333330  0.66666670  0.12483852
   0.17192106  0.34384202  0.74950694
   0.49474564  0.98949128  0.31299306
   0.49463272  0.50536728  0.81264778
   0.49474564  0.50525436  0.31299306
   0.65615798  0.82807894  0.74950694
   0.65593214  0.82796602  0.24985222
   0.17192106  0.82807894  0.74950694
   0.17203398  0.82796602  0.24985222
   0.01050872  0.50525436  0.31299306
   0.17203398  0.34406786  0.24985222
   0.99789157  0.49894578  0.68713495
   0.99835915  0.49917957  0.18723877
   0.50105422  0.00210843  0.68713495
   0.50082043  0.00164085  0.18723877
   0.50105422  0.49894578  0.68713495
   0.50082043  0.49917957  0.18723877
   0.49463272  0.98926544  0.81264778
   0.83301306  0.66602622  0.12497532
   0.01073456  0.50536728  0.81264778
   0.16561248  0.33122487  0.37536505
   0.16584627  0.33169245  0.87526123
   0.16561248  0.83438752  0.37536505
   0.16584627  0.83415373  0.87526123
   0.66877513  0.83438752  0.37536505
   0.66830755  0.83415373  0.87526123
   0.33348818  0.16674414  0.43764870
   0.33269282  0.16634646  0.93752468
   0.83325586  0.16674414  0.43764870
   0.83365354  0.16634646  0.93752468
   0.83325586  0.66651182  0.43764870
   0.83365354  0.66730718  0.93752468
   0.83341074  0.66682158  0.62485130
   0.49983491  0.50016509  0.99970908
   0.49999167  0.50000833  0.50003729
   0.49983491  0.99966983  0.99970908
   0.49999167  0.99998334  0.50003729
   0.00033017  0.50016509  0.99970908
   0.00001666  0.50000833  0.50003729
   0.16683179  0.33366347  0.06279092
   0.16667503  0.33334996  0.56246271
   0.16683179  0.83316821  0.06279092
   0.16667503  0.83332497  0.56246271
   0.66633653  0.83316821  0.06279092
   0.66665004  0.83332497  0.56246271
   0.33397378  0.16698694  0.12497532
   0.33317842  0.16658926  0.62485130
   0.83301306  0.16698694  0.12497532
   0.83341074  0.16658926  0.62485130
   0.00000000 -0.00000000  0.49980538
   0.66666670  0.33333330  0.06092125
   0.66666670  0.33333330  0.56269462
   0.33333330  0.66666670  0.62541849
   0.00000000 -0.00000000  0.18799816
   0.00000000  0.00000000  0.68919320
   0.66666670  0.33333330  0.24974400
   0.66666670  0.33333330  0.75238764
   0.00000000  0.00000000  0.31011236
   0.00000000 -0.00000000  0.81275600
   0.66666670  0.33333330  0.37330680
   0.66666670  0.33333330  0.87450184
   0.33333330  0.66666670  0.43708151
   0.00000000  0.00000000  0.00157875
Test of VASP submission                 
           1
     5.091582    0.000000   -0.000000
    -2.545791    4.409440   -0.000000
     0.000000    0.000000   33.230193
   Al   Ni   Ti
   2  48  14
Direct configuration=     3
   0.33333330  0.66666670  0.93767263
   0.33333330  0.66666670  0.12482737
   0.17190664  0.34381318  0.74950117
   0.49476006  0.98952012  0.31299883
   0.49465044  0.50534956  0.81263080
   0.49476006  0.50523994  0.31299883
   0.65618682  0.82809336  0.74950117
   0.65596757  0.82798374  0.24986920
   0.17190664  0.82809336  0.74950117
   0.17201626  0.82798374  0.24986920
   0.01047988  0.50523994  0.31299883
   0.17201626  0.34403243  0.24986920
   0.99789874  0.49894937  0.68712730
   0.99838155  0.49919078  0.18724975
   0.50105063  0.00210126  0.68712730
   0.50080922  0.00161845  0.18724975
   0.50105063  0.49894937  0.68712730
   0.50080922  0.49919078  0.18724975
   0.49465044  0.98930087  0.81263080
   0.83302721  0.66605453  0.12498646
   0.01069913  0.50534956  0.81263080
   0.16561607  0.33123204  0.37537270
   0.16585748  0.33171485  0.87525025
   0.16561607  0.83438393  0.37537270
   0.16585748  0.83414252  0.87525025
   0.66876796  0.83438393  0.37537270
   0.66828515  0.83414252  0.87525025
   0.33348697  0.16674353  0.43765236
   0.33272113  0.16636061  0.93751354
   0.83325647  0.16674353  0.43765236
   0.83363939  0.16636061  0.93751354
   0.83325647  0.66651303  0.43765236
   0.83363939  0.66727887  0.93751354
   0.83341013  0.66682037  0.62484764
   0.49985562  0.50014438  0.99971766
   0.49998838  0.50001162  0.50003646
   0.49985562  0.99971125  0.99971766
   0.49998838  0.99997676  0.50003646
   0.00028875  0.50014438  0.99971766
   0.00002324  0.50001162  0.50003646
   0.16681108  0.33362205  0.06278234
   0.16667832  0.33335654  0.56246354
   0.16681108  0.83318892  0.06278234
   0.16667832  0.83332168  0.56246354
   0.66637795  0.83318892  0.06278234
   0.66664346  0.83332168  0.56246354
   0.33394547  0.16697279  0.12498646
   0.33317963  0.16658987  0.62484764
   0.83302721  0.16697279  0.12498646
   0.83341013  0.16658987  0.62484764
   0.00000000 -0.00000000  0.49981528
   0.66666670  0.33333330  0.06094244
   0.66666670  0.33333330  0.56268472
   0.33333330  0.66666670  0.62540806
   0.00000000 -0.00000000  0.18801230
   0.00000000  0.00000000  0.68919127
   0.66666670  0.33333330  0.24973859
   0.66666670  0.33333330  0.75236194
   0.00000000 -0.00000000  0.31013806
   0.00000000 -0.00000000  0.81276141
   0.66666670  0.33333330  0.37330873
   0.66666670  0.33333330  0.87448770
   0.33333330  0.66666670  0.43709194
   0.00000000  0.00000000  0.00155756
