  64  64   0   0
  0.1160638E+02  0.5084407E-09  0.5084408E-09  0.3317916E-08  0.5000000E-15
  1.000000000000000E-004
  CAR 
 Test of VASP submission                 
     18.32294230    -50.58756050  301      9.91549001      1.00000000
    -50.588  0.0000E+00  0.0000E+00  0.0000E+00  0.0000E+00
    -50.358  0.0000E+00  0.0000E+00  0.0000E+00  0.0000E+00
    -50.128  0.0000E+00  0.0000E+00  0.0000E+00  0.0000E+00
    -49.898  0.0000E+00  0.0000E+00  0.0000E+00  0.0000E+00
    -49.669  0.0000E+00  0.0000E+00  0.0000E+00  0.0000E+00
    -49.439  0.0000E+00  0.0000E+00  0.0000E+00  0.0000E+00
    -49.209 -0.1217E-33 -0.1216E-33 -0.2795E-34 -0.2793E-34
    -48.980 -0.1687E-25 -0.1686E-25 -0.3876E-26 -0.3874E-26
    -48.750 -0.1651E-18 -0.1650E-18 -0.3792E-19 -0.3790E-19
    -48.520 -0.1094E-12 -0.1093E-12 -0.2512E-13 -0.2511E-13
    -48.291 -0.5086E-08 -0.5085E-08 -0.1168E-08 -0.1168E-08
    -48.061 -0.1559E-04 -0.1559E-04 -0.3582E-05 -0.3582E-05
    -47.831 -0.2770E-02 -0.2769E-02 -0.6398E-03 -0.6397E-03
    -47.601 -0.2890E-02 -0.2894E-02 -0.1304E-02 -0.1304E-02
    -47.372  0.2673E+00  0.2673E+00  0.6010E-01  0.6010E-01
    -47.142  0.4948E+00  0.4949E+00  0.1738E+00  0.1738E+00
    -46.912  0.2243E+00  0.2243E+00  0.2253E+00  0.2253E+00
    -46.683 -0.1178E-01 -0.1179E-01  0.2226E+00  0.2226E+00
    -46.453 -0.1556E-02 -0.1556E-02  0.2222E+00  0.2222E+00
    -46.223 -0.5997E-05 -0.5993E-05  0.2222E+00  0.2222E+00
    -45.994 -0.1481E-08 -0.1479E-08  0.2222E+00  0.2222E+00
    -45.764 -0.2493E-13 -0.2490E-13  0.2222E+00  0.2222E+00
    -45.534  0.0000E+00  0.0000E+00  0.2222E+00  0.2222E+00
    -45.304  0.0000E+00  0.0000E+00  0.2222E+00  0.2222E+00
    -45.075  0.0000E+00  0.0000E+00  0.2222E+00  0.2222E+00
    -44.845  0.0000E+00  0.0000E+00  0.2222E+00  0.2222E+00
    -44.615  0.0000E+00  0.0000E+00  0.2222E+00  0.2222E+00
    -44.386  0.0000E+00  0.0000E+00  0.2222E+00  0.2222E+00
    -44.156  0.0000E+00  0.0000E+00  0.2222E+00  0.2222E+00
    -43.926  0.0000E+00  0.0000E+00  0.2222E+00  0.2222E+00
    -43.697  0.0000E+00  0.0000E+00  0.2222E+00  0.2222E+00
    -43.467  0.0000E+00  0.0000E+00  0.2222E+00  0.2222E+00
    -43.237  0.0000E+00  0.0000E+00  0.2222E+00  0.2222E+00
    -43.007  0.0000E+00  0.0000E+00  0.2222E+00  0.2222E+00
    -42.778  0.0000E+00  0.0000E+00  0.2222E+00  0.2222E+00
    -42.548  0.0000E+00  0.0000E+00  0.2222E+00  0.2222E+00
    -42.318  0.0000E+00  0.0000E+00  0.2222E+00  0.2222E+00
    -42.089  0.0000E+00  0.0000E+00  0.2222E+00  0.2222E+00
    -41.859  0.0000E+00  0.0000E+00  0.2222E+00  0.2222E+00
    -41.629  0.0000E+00  0.0000E+00  0.2222E+00  0.2222E+00
    -41.399  0.0000E+00  0.0000E+00  0.2222E+00  0.2222E+00
    -41.170  0.0000E+00  0.0000E+00  0.2222E+00  0.2222E+00
    -40.940  0.0000E+00  0.0000E+00  0.2222E+00  0.2222E+00
    -40.710  0.0000E+00  0.0000E+00  0.2222E+00  0.2222E+00
    -40.481  0.0000E+00  0.0000E+00  0.2222E+00  0.2222E+00
    -40.251  0.0000E+00  0.0000E+00  0.2222E+00  0.2222E+00
    -40.021  0.0000E+00  0.0000E+00  0.2222E+00  0.2222E+00
    -39.792  0.0000E+00  0.0000E+00  0.2222E+00  0.2222E+00
    -39.562  0.0000E+00  0.0000E+00  0.2222E+00  0.2222E+00
    -39.332  0.0000E+00  0.0000E+00  0.2222E+00  0.2222E+00
    -39.102  0.0000E+00  0.0000E+00  0.2222E+00  0.2222E+00
    -38.873  0.0000E+00  0.0000E+00  0.2222E+00  0.2222E+00
    -38.643  0.0000E+00  0.0000E+00  0.2222E+00  0.2222E+00
    -38.413  0.0000E+00  0.0000E+00  0.2222E+00  0.2222E+00
    -38.184  0.0000E+00  0.0000E+00  0.2222E+00  0.2222E+00
    -37.954  0.0000E+00  0.0000E+00  0.2222E+00  0.2222E+00
    -37.724  0.0000E+00  0.0000E+00  0.2222E+00  0.2222E+00
    -37.495  0.0000E+00  0.0000E+00  0.2222E+00  0.2222E+00
    -37.265  0.0000E+00  0.0000E+00  0.2222E+00  0.2222E+00
    -37.035  0.0000E+00  0.0000E+00  0.2222E+00  0.2222E+00
    -36.805  0.0000E+00  0.0000E+00  0.2222E+00  0.2222E+00
    -36.576  0.0000E+00  0.0000E+00  0.2222E+00  0.2222E+00
    -36.346  0.0000E+00  0.0000E+00  0.2222E+00  0.2222E+00
    -36.116  0.0000E+00  0.0000E+00  0.2222E+00  0.2222E+00
    -35.887  0.0000E+00  0.0000E+00  0.2222E+00  0.2222E+00
    -35.657  0.0000E+00  0.0000E+00  0.2222E+00  0.2222E+00
    -35.427  0.0000E+00  0.0000E+00  0.2222E+00  0.2222E+00
    -35.198  0.0000E+00  0.0000E+00  0.2222E+00  0.2222E+00
    -34.968  0.0000E+00  0.0000E+00  0.2222E+00  0.2222E+00
    -34.738  0.0000E+00  0.0000E+00  0.2222E+00  0.2222E+00
    -34.508  0.0000E+00  0.0000E+00  0.2222E+00  0.2222E+00
    -34.279  0.0000E+00  0.0000E+00  0.2222E+00  0.2222E+00
    -34.049  0.0000E+00  0.0000E+00  0.2222E+00  0.2222E+00
    -33.819  0.0000E+00  0.0000E+00  0.2222E+00  0.2222E+00
    -33.590  0.0000E+00  0.0000E+00  0.2222E+00  0.2222E+00
    -33.360  0.0000E+00  0.0000E+00  0.2222E+00  0.2222E+00
    -33.130  0.0000E+00  0.0000E+00  0.2222E+00  0.2222E+00
    -32.901  0.0000E+00  0.0000E+00  0.2222E+00  0.2222E+00
    -32.671  0.0000E+00  0.0000E+00  0.2222E+00  0.2222E+00
    -32.441  0.0000E+00  0.0000E+00  0.2222E+00  0.2222E+00
    -32.211  0.0000E+00  0.0000E+00  0.2222E+00  0.2222E+00
    -31.982  0.0000E+00  0.0000E+00  0.2222E+00  0.2222E+00
    -31.752  0.0000E+00  0.0000E+00  0.2222E+00  0.2222E+00
    -31.522  0.0000E+00  0.0000E+00  0.2222E+00  0.2222E+00
    -31.293  0.0000E+00  0.0000E+00  0.2222E+00  0.2222E+00
    -31.063  0.0000E+00  0.0000E+00  0.2222E+00  0.2222E+00
    -30.833  0.0000E+00  0.0000E+00  0.2222E+00  0.2222E+00
    -30.604  0.0000E+00  0.0000E+00  0.2222E+00  0.2222E+00
    -30.374  0.0000E+00  0.0000E+00  0.2222E+00  0.2222E+00
    -30.144  0.0000E+00  0.0000E+00  0.2222E+00  0.2222E+00
    -29.914  0.0000E+00  0.0000E+00  0.2222E+00  0.2222E+00
    -29.685  0.0000E+00  0.0000E+00  0.2222E+00  0.2222E+00
    -29.455  0.0000E+00  0.0000E+00  0.2222E+00  0.2222E+00
    -29.225  0.0000E+00  0.0000E+00  0.2222E+00  0.2222E+00
    -28.996  0.0000E+00  0.0000E+00  0.2222E+00  0.2222E+00
    -28.766  0.0000E+00  0.0000E+00  0.2222E+00  0.2222E+00
    -28.536  0.0000E+00  0.0000E+00  0.2222E+00  0.2222E+00
    -28.306  0.0000E+00  0.0000E+00  0.2222E+00  0.2222E+00
    -28.077  0.0000E+00  0.0000E+00  0.2222E+00  0.2222E+00
    -27.847  0.0000E+00  0.0000E+00  0.2222E+00  0.2222E+00
    -27.617  0.0000E+00  0.0000E+00  0.2222E+00  0.2222E+00
    -27.388  0.0000E+00  0.0000E+00  0.2222E+00  0.2222E+00
    -27.158  0.0000E+00  0.0000E+00  0.2222E+00  0.2222E+00
    -26.928  0.0000E+00  0.0000E+00  0.2222E+00  0.2222E+00
    -26.699  0.0000E+00  0.0000E+00  0.2222E+00  0.2222E+00
    -26.469  0.0000E+00  0.0000E+00  0.2222E+00  0.2222E+00
    -26.239  0.0000E+00  0.0000E+00  0.2222E+00  0.2222E+00
    -26.009  0.0000E+00  0.0000E+00  0.2222E+00  0.2222E+00
    -25.780  0.0000E+00  0.0000E+00  0.2222E+00  0.2222E+00
    -25.550 -0.1778E-35 -0.1776E-35  0.2222E+00  0.2222E+00
    -25.320 -0.4911E-27 -0.4907E-27  0.2222E+00  0.2222E+00
    -25.091 -0.9040E-20 -0.9034E-20  0.2222E+00  0.2222E+00
    -24.861 -0.1148E-13 -0.1147E-13  0.2222E+00  0.2222E+00
    -24.631 -0.1046E-08 -0.1045E-08  0.2222E+00  0.2222E+00
    -24.402 -0.6519E-05 -0.6517E-05  0.2222E+00  0.2222E+00
    -24.172 -0.2562E-02 -0.2562E-02  0.2216E+00  0.2216E+00
    -23.942 -0.3618E-01 -0.3618E-01  0.2133E+00  0.2133E+00
    -23.712  0.4663E+00  0.4662E+00  0.3204E+00  0.3204E+00
    -23.483  0.1401E+01  0.1401E+01  0.6421E+00  0.6421E+00
    -23.253  0.1051E+01  0.1051E+01  0.8835E+00  0.8835E+00
    -23.023  0.3810E-01  0.3805E-01  0.8922E+00  0.8922E+00
    -22.794 -0.1444E-01 -0.1444E-01  0.8889E+00  0.8889E+00
    -22.564 -0.1440E-03 -0.1439E-03  0.8889E+00  0.8889E+00
    -22.334 -0.8695E-07 -0.8686E-07  0.8889E+00  0.8889E+00
    -22.105 -0.3616E-11 -0.3611E-11  0.8889E+00  0.8889E+00
    -21.875  0.0000E+00  0.0000E+00  0.8889E+00  0.8889E+00
    -21.645  0.0000E+00  0.0000E+00  0.8889E+00  0.8889E+00
    -21.415  0.0000E+00  0.0000E+00  0.8889E+00  0.8889E+00
    -21.186  0.0000E+00  0.0000E+00  0.8889E+00  0.8889E+00
    -20.956  0.0000E+00  0.0000E+00  0.8889E+00  0.8889E+00
    -20.726  0.0000E+00  0.0000E+00  0.8889E+00  0.8889E+00
    -20.497  0.0000E+00  0.0000E+00  0.8889E+00  0.8889E+00
    -20.267  0.0000E+00  0.0000E+00  0.8889E+00  0.8889E+00
    -20.037  0.0000E+00  0.0000E+00  0.8889E+00  0.8889E+00
    -19.808  0.0000E+00  0.0000E+00  0.8889E+00  0.8889E+00
    -19.578  0.0000E+00  0.0000E+00  0.8889E+00  0.8889E+00
    -19.348  0.0000E+00  0.0000E+00  0.8889E+00  0.8889E+00
    -19.118  0.0000E+00  0.0000E+00  0.8889E+00  0.8889E+00
    -18.889  0.0000E+00  0.0000E+00  0.8889E+00  0.8889E+00
    -18.659  0.0000E+00  0.0000E+00  0.8889E+00  0.8889E+00
    -18.429  0.0000E+00  0.0000E+00  0.8889E+00  0.8889E+00
    -18.200  0.0000E+00  0.0000E+00  0.8889E+00  0.8889E+00
    -17.970  0.0000E+00  0.0000E+00  0.8889E+00  0.8889E+00
    -17.740  0.0000E+00  0.0000E+00  0.8889E+00  0.8889E+00
    -17.511  0.0000E+00  0.0000E+00  0.8889E+00  0.8889E+00
    -17.281  0.0000E+00  0.0000E+00  0.8889E+00  0.8889E+00
    -17.051  0.0000E+00  0.0000E+00  0.8889E+00  0.8889E+00
    -16.821  0.0000E+00  0.0000E+00  0.8889E+00  0.8889E+00
    -16.592  0.0000E+00  0.0000E+00  0.8889E+00  0.8889E+00
    -16.362  0.0000E+00  0.0000E+00  0.8889E+00  0.8889E+00
    -16.132  0.0000E+00  0.0000E+00  0.8889E+00  0.8889E+00
    -15.903  0.0000E+00  0.0000E+00  0.8889E+00  0.8889E+00
    -15.673  0.0000E+00  0.0000E+00  0.8889E+00  0.8889E+00
    -15.443  0.0000E+00  0.0000E+00  0.8889E+00  0.8889E+00
    -15.214  0.0000E+00  0.0000E+00  0.8889E+00  0.8889E+00
    -14.984  0.0000E+00  0.0000E+00  0.8889E+00  0.8889E+00
    -14.754  0.0000E+00  0.0000E+00  0.8889E+00  0.8889E+00
    -14.524  0.0000E+00  0.0000E+00  0.8889E+00  0.8889E+00
    -14.295  0.0000E+00  0.0000E+00  0.8889E+00  0.8889E+00
    -14.065  0.0000E+00  0.0000E+00  0.8889E+00  0.8889E+00
    -13.835  0.0000E+00  0.0000E+00  0.8889E+00  0.8889E+00
    -13.606  0.0000E+00  0.0000E+00  0.8889E+00  0.8889E+00
    -13.376  0.0000E+00  0.0000E+00  0.8889E+00  0.8889E+00
    -13.146  0.0000E+00  0.0000E+00  0.8889E+00  0.8889E+00
    -12.916  0.0000E+00  0.0000E+00  0.8889E+00  0.8889E+00
    -12.687  0.0000E+00  0.0000E+00  0.8889E+00  0.8889E+00
    -12.457  0.0000E+00  0.0000E+00  0.8889E+00  0.8889E+00
    -12.227  0.0000E+00  0.0000E+00  0.8889E+00  0.8889E+00
    -11.998  0.0000E+00  0.0000E+00  0.8889E+00  0.8889E+00
    -11.768  0.0000E+00  0.0000E+00  0.8889E+00  0.8889E+00
    -11.538  0.0000E+00  0.0000E+00  0.8889E+00  0.8889E+00
    -11.309  0.0000E+00  0.0000E+00  0.8889E+00  0.8889E+00
    -11.079  0.0000E+00  0.0000E+00  0.8889E+00  0.8889E+00
    -10.849  0.0000E+00  0.0000E+00  0.8889E+00  0.8889E+00
    -10.619  0.0000E+00  0.0000E+00  0.8889E+00  0.8889E+00
    -10.390  0.0000E+00  0.0000E+00  0.8889E+00  0.8889E+00
    -10.160  0.0000E+00  0.0000E+00  0.8889E+00  0.8889E+00
     -9.930  0.0000E+00  0.0000E+00  0.8889E+00  0.8889E+00
     -9.701  0.0000E+00  0.0000E+00  0.8889E+00  0.8889E+00
     -9.471  0.0000E+00  0.0000E+00  0.8889E+00  0.8889E+00
     -9.241  0.0000E+00  0.0000E+00  0.8889E+00  0.8889E+00
     -9.012  0.0000E+00  0.0000E+00  0.8889E+00  0.8889E+00
     -8.782  0.0000E+00  0.0000E+00  0.8889E+00  0.8889E+00
     -8.552  0.0000E+00  0.0000E+00  0.8889E+00  0.8889E+00
     -8.322  0.0000E+00  0.0000E+00  0.8889E+00  0.8889E+00
     -8.093  0.0000E+00  0.0000E+00  0.8889E+00  0.8889E+00
     -7.863  0.0000E+00  0.0000E+00  0.8889E+00  0.8889E+00
     -7.633  0.0000E+00  0.0000E+00  0.8889E+00  0.8889E+00
     -7.404  0.0000E+00  0.0000E+00  0.8889E+00  0.8889E+00
     -7.174  0.0000E+00  0.0000E+00  0.8889E+00  0.8889E+00
     -6.944  0.0000E+00  0.0000E+00  0.8889E+00  0.8889E+00
     -6.715  0.0000E+00  0.0000E+00  0.8889E+00  0.8889E+00
     -6.485  0.0000E+00  0.0000E+00  0.8889E+00  0.8889E+00
     -6.255  0.0000E+00  0.0000E+00  0.8889E+00  0.8889E+00
     -6.025  0.0000E+00  0.0000E+00  0.8889E+00  0.8889E+00
     -5.796  0.0000E+00  0.0000E+00  0.8889E+00  0.8889E+00
     -5.566  0.0000E+00  0.0000E+00  0.8889E+00  0.8889E+00
     -5.336  0.0000E+00  0.0000E+00  0.8889E+00  0.8889E+00
     -5.107  0.0000E+00  0.0000E+00  0.8889E+00  0.8889E+00
     -4.877  0.0000E+00  0.0000E+00  0.8889E+00  0.8889E+00
     -4.647  0.0000E+00  0.0000E+00  0.8889E+00  0.8889E+00
     -4.418  0.0000E+00  0.0000E+00  0.8889E+00  0.8889E+00
     -4.188  0.0000E+00  0.0000E+00  0.8889E+00  0.8889E+00
     -3.958  0.0000E+00  0.0000E+00  0.8889E+00  0.8889E+00
     -3.728  0.0000E+00  0.0000E+00  0.8889E+00  0.8889E+00
     -3.499  0.0000E+00  0.0000E+00  0.8889E+00  0.8889E+00
     -3.269  0.0000E+00  0.0000E+00  0.8889E+00  0.8889E+00
     -3.039  0.0000E+00  0.0000E+00  0.8889E+00  0.8889E+00
     -2.810  0.0000E+00  0.0000E+00  0.8889E+00  0.8889E+00
     -2.580  0.0000E+00  0.0000E+00  0.8889E+00  0.8889E+00
     -2.350  0.0000E+00  0.0000E+00  0.8889E+00  0.8889E+00
     -2.121  0.0000E+00  0.0000E+00  0.8889E+00  0.8889E+00
     -1.891  0.0000E+00  0.0000E+00  0.8889E+00  0.8889E+00
     -1.661  0.0000E+00  0.0000E+00  0.8889E+00  0.8889E+00
     -1.431  0.0000E+00  0.0000E+00  0.8889E+00  0.8889E+00
     -1.202  0.0000E+00  0.0000E+00  0.8889E+00  0.8889E+00
     -0.972  0.0000E+00  0.0000E+00  0.8889E+00  0.8889E+00
     -0.742 -0.8781E-35 -0.8822E-35  0.8889E+00  0.8889E+00
     -0.513 -0.8569E-27 -0.8604E-27  0.8889E+00  0.8889E+00
     -0.283 -0.5987E-20 -0.6008E-20  0.8889E+00  0.8889E+00
     -0.053 -0.2885E-14 -0.2893E-14  0.8889E+00  0.8889E+00
      0.177 -0.1008E-09 -0.1010E-09  0.8889E+00  0.8889E+00
      0.406 -0.2445E-06 -0.2449E-06  0.8889E+00  0.8889E+00
      0.636 -0.3784E-04 -0.3788E-04  0.8889E+00  0.8889E+00
      0.866 -0.9838E-04 -0.9819E-04  0.8889E+00  0.8889E+00
      1.095  0.3576E-02  0.3577E-02  0.8897E+00  0.8897E+00
      1.325  0.1156E-01  0.1156E-01  0.8923E+00  0.8923E+00
      1.555  0.2033E-01  0.2033E-01  0.8970E+00  0.8970E+00
      1.784  0.2665E-01  0.2665E-01  0.9031E+00  0.9031E+00
      2.014  0.3225E-01  0.3225E-01  0.9105E+00  0.9105E+00
      2.244  0.3858E-01  0.3858E-01  0.9194E+00  0.9194E+00
      2.474  0.4753E-01  0.4753E-01  0.9303E+00  0.9303E+00
      2.703  0.5537E-01  0.5537E-01  0.9430E+00  0.9430E+00
      2.933  0.4757E-01  0.4757E-01  0.9540E+00  0.9540E+00
      3.163  0.4189E-01  0.4189E-01  0.9636E+00  0.9636E+00
      3.392  0.5022E-01  0.5023E-01  0.9751E+00  0.9751E+00
      3.622  0.6672E-01  0.6672E-01  0.9904E+00  0.9904E+00
      3.852  0.8192E-01  0.8193E-01  0.1009E+01  0.1009E+01
      4.081  0.8625E-01  0.8625E-01  0.1029E+01  0.1029E+01
      4.311  0.9285E-01  0.9285E-01  0.1050E+01  0.1050E+01
      4.541  0.1055E+00  0.1055E+00  0.1075E+01  0.1075E+01
      4.771  0.1221E+00  0.1221E+00  0.1103E+01  0.1103E+01
      5.000  0.1470E+00  0.1470E+00  0.1136E+01  0.1136E+01
      5.230  0.2165E+00  0.2165E+00  0.1186E+01  0.1186E+01
      5.460  0.3273E+00  0.3274E+00  0.1261E+01  0.1261E+01
      5.689  0.3820E+00  0.3821E+00  0.1349E+01  0.1349E+01
      5.919  0.4441E+00  0.4441E+00  0.1451E+01  0.1451E+01
      6.149  0.5494E+00  0.5494E+00  0.1577E+01  0.1577E+01
      6.378  0.7378E+00  0.7378E+00  0.1747E+01  0.1747E+01
      6.608  0.8632E+00  0.8632E+00  0.1945E+01  0.1945E+01
      6.838  0.9761E+00  0.9761E+00  0.2169E+01  0.2169E+01
      7.068  0.8815E+00  0.8815E+00  0.2372E+01  0.2372E+01
      7.297  0.9395E+00  0.9395E+00  0.2588E+01  0.2588E+01
      7.527  0.1028E+01  0.1028E+01  0.2824E+01  0.2824E+01
      7.757  0.1093E+01  0.1093E+01  0.3075E+01  0.3075E+01
      7.986  0.1321E+01  0.1321E+01  0.3378E+01  0.3378E+01
      8.216  0.1332E+01  0.1332E+01  0.3684E+01  0.3684E+01
      8.446  0.1372E+01  0.1372E+01  0.3999E+01  0.3999E+01
      8.675  0.1280E+01  0.1280E+01  0.4293E+01  0.4293E+01
      8.905  0.1249E+01  0.1249E+01  0.4580E+01  0.4580E+01
      9.135  0.9650E+00  0.9650E+00  0.4802E+01  0.4802E+01
      9.365  0.8151E+00  0.8151E+00  0.4989E+01  0.4989E+01
      9.594  0.5468E+00  0.5468E+00  0.5115E+01  0.5115E+01
      9.824  0.2815E+00  0.2815E+00  0.5179E+01  0.5179E+01
     10.054  0.8341E-01  0.8341E-01  0.5198E+01  0.5198E+01
     10.283  0.1256E+00  0.1256E+00  0.5227E+01  0.5227E+01
     10.513  0.2962E+00  0.2962E+00  0.5295E+01  0.5295E+01
     10.743  0.7850E+00  0.7850E+00  0.5476E+01  0.5476E+01
     10.972  0.9660E+00  0.9660E+00  0.5698E+01  0.5698E+01
     11.202  0.7066E+00  0.7066E+00  0.5860E+01  0.5860E+01
     11.432  0.4383E+00  0.4383E+00  0.5961E+01  0.5961E+01
     11.662  0.3964E+00  0.3964E+00  0.6052E+01  0.6052E+01
     11.891  0.3788E+00  0.3788E+00  0.6139E+01  0.6139E+01
     12.121  0.3218E+00  0.3218E+00  0.6213E+01  0.6213E+01
     12.351  0.2240E+00  0.2240E+00  0.6264E+01  0.6264E+01
     12.580  0.1821E+00  0.1821E+00  0.6306E+01  0.6306E+01
     12.810  0.1707E+00  0.1707E+00  0.6345E+01  0.6345E+01
     13.040  0.1718E+00  0.1718E+00  0.6384E+01  0.6384E+01
     13.270  0.1556E+00  0.1554E+00  0.6420E+01  0.6420E+01
     13.499  0.1719E+00  0.1719E+00  0.6460E+01  0.6460E+01
     13.729  0.1802E+00  0.1801E+00  0.6501E+01  0.6501E+01
     13.959  0.1487E+00  0.1488E+00  0.6535E+01  0.6535E+01
     14.188  0.1217E+00  0.1229E+00  0.6563E+01  0.6563E+01
     14.418  0.8723E-01  0.8743E-01  0.6583E+01  0.6584E+01
     14.648  0.5441E-01  0.5307E-01  0.6596E+01  0.6596E+01
     14.877  0.2272E-01  0.2300E-01  0.6601E+01  0.6601E+01
     15.107  0.8433E-02  0.8327E-02  0.6603E+01  0.6603E+01
     15.337  0.1427E-02  0.1305E-02  0.6603E+01  0.6603E+01
     15.567 -0.8780E-04 -0.1342E-03  0.6603E+01  0.6603E+01
     15.796 -0.1619E-04 -0.1082E-04  0.6603E+01  0.6603E+01
     16.026 -0.9036E-07 -0.3575E-07  0.6603E+01  0.6603E+01
     16.256 -0.3040E-10 -0.7368E-11  0.6603E+01  0.6603E+01
     16.485 -0.6745E-15 -0.1023E-15  0.6603E+01  0.6603E+01
     16.715  0.0000E+00  0.0000E+00  0.6603E+01  0.6603E+01
     16.945  0.0000E+00  0.0000E+00  0.6603E+01  0.6603E+01
     17.174  0.0000E+00  0.0000E+00  0.6603E+01  0.6603E+01
     17.404  0.0000E+00  0.0000E+00  0.6603E+01  0.6603E+01
     17.634  0.0000E+00  0.0000E+00  0.6603E+01  0.6603E+01
     17.864  0.0000E+00  0.0000E+00  0.6603E+01  0.6603E+01
     18.093  0.0000E+00  0.0000E+00  0.6603E+01  0.6603E+01
     18.323  0.0000E+00  0.0000E+00  0.6603E+01  0.6603E+01
