   64   64   63    2
  0.1160638E+02  0.5084407E-09  0.5084408E-09  0.3317916E-08  0.5000000E-15
  1.000000000000000E-004
  CAR 
 Test of VASP submission                 
    654    121    416
 
  0.0000000E+00  0.0000000E+00  0.0000000E+00  0.8333333E-03
    1      -47.455265    -47.455256   1.000000   1.000000
    2      -47.451239    -47.451230   1.000000   1.000000
    3      -47.428921    -47.428915   1.000000   1.000000
    4      -47.428866    -47.428860   1.000000   1.000000
    5      -47.326157    -47.326155   1.000000   1.000000
    6      -47.326120    -47.326118   1.000000   1.000000
    7      -47.269327    -47.269331   1.000000   1.000000
    8      -47.269235    -47.269239   1.000000   1.000000
    9      -47.177941    -47.177951   1.000000   1.000000
   10      -47.177613    -47.177622   1.000000   1.000000
   11      -47.155083    -47.155100   1.000000   1.000000
   12      -47.154628    -47.154645   1.000000   1.000000
   13      -47.087772    -47.087796   1.000000   1.000000
   14      -47.082497    -47.082521   1.000000   1.000000
   15      -23.735034    -23.735024   1.000000   1.000000
   16      -23.735032    -23.735022   1.000000   1.000000
   17      -23.730955    -23.730945   1.000000   1.000000
   18      -23.719865    -23.719856   1.000000   1.000000
   19      -23.719863    -23.719854   1.000000   1.000000
   20      -23.716779    -23.716769   1.000000   1.000000
   21      -23.699902    -23.699895   1.000000   1.000000
   22      -23.699900    -23.699892   1.000000   1.000000
   23      -23.696626    -23.696618   1.000000   1.000000
   24      -23.696624    -23.696616   1.000000   1.000000
   25      -23.691714    -23.691706   1.000000   1.000000
   26      -23.687208    -23.687200   1.000000   1.000000
   27      -23.605087    -23.605084   1.000000   1.000000
   28      -23.605084    -23.605082   1.000000   1.000000
   29      -23.605075    -23.605072   1.000000   1.000000
   30      -23.605073    -23.605070   1.000000   1.000000
   31      -23.580741    -23.580738   1.000000   1.000000
   32      -23.580716    -23.580713   1.000000   1.000000
   33      -23.549778    -23.549782   1.000000   1.000000
   34      -23.549776    -23.549780   1.000000   1.000000
   35      -23.549706    -23.549710   1.000000   1.000000
   36      -23.549704    -23.549708   1.000000   1.000000
   37      -23.515132    -23.515136   1.000000   1.000000
   38      -23.515054    -23.515058   1.000000   1.000000
   39      -23.466754    -23.466766   1.000000   1.000000
   40      -23.466751    -23.466763   1.000000   1.000000
   41      -23.466422    -23.466435   1.000000   1.000000
   42      -23.466419    -23.466431   1.000000   1.000000
   43      -23.430563    -23.430583   1.000000   1.000000
   44      -23.430561    -23.430580   1.000000   1.000000
   45      -23.430131    -23.430151   1.000000   1.000000
   46      -23.430129    -23.430149   1.000000   1.000000
   47      -23.415941    -23.415956   1.000000   1.000000
   48      -23.415569    -23.415584   1.000000   1.000000
   49      -23.396170    -23.396186   1.000000   1.000000
   50      -23.395787    -23.395803   1.000000   1.000000
   51      -23.369120    -23.369148   1.000000   1.000000
   52      -23.369117    -23.369146   1.000000   1.000000
   53      -23.356970    -23.356999   1.000000   1.000000
   54      -23.345646    -23.345674   1.000000   1.000000
   55      -23.345643    -23.345672   1.000000   1.000000
   56      -23.336675    -23.336704   1.000000   1.000000
   57        0.974129      0.974074   1.000000   1.000000
   58        1.211980      1.211932   1.000000   1.000000
   59        1.345338      1.345351   1.000000   1.000000
   60        1.660324      1.660319   1.000000   1.000000
   61        1.923450      1.923437   1.000000   1.000000
   62        2.437629      2.437617   1.000000   1.000000
   63        2.642737      2.642712   1.000000   1.000000
   64        3.382415      3.382391   1.000000   1.000000
   65        3.402740      3.402724   1.000000   1.000000
   66        4.242006      4.241991   1.000000   1.000000
   67        4.303816      4.303800   1.000000   1.000000
   68        4.903691      4.903683   1.000000   1.000000
   69        4.907641      4.907633   1.000000   1.000000
   70        5.103700      5.103699   1.000000   1.000000
   71        5.125891      5.125898   1.000000   1.000000
   72        5.125891      5.125899   1.000000   1.000000
   73        5.152036      5.152045   1.000000   1.000000
   74        5.152036      5.152045   1.000000   1.000000
   75        5.236295      5.236278   1.000000   1.000000
   76        5.297908      5.297907   1.000000   1.000000
   77        5.297909      5.297908   1.000000   1.000000
   78        5.309406      5.309404   1.000000   1.000000
   79        5.309407      5.309405   1.000000   1.000000
   80        5.435964      5.435956   1.000000   1.000000
   81        5.435964      5.435956   1.000000   1.000000
   82        5.447347      5.447320   1.000000   1.000000
   83        5.484589      5.484583   1.000000   1.000000
   84        5.484589      5.484584   1.000000   1.000000
   85        5.550456      5.550447   1.000000   1.000000
   86        5.550457      5.550447   1.000000   1.000000
   87        5.631911      5.631884   1.000000   1.000000
   88        5.646803      5.646791   1.000000   1.000000
   89        5.646803      5.646791   1.000000   1.000000
   90        5.701280      5.701271   1.000000   1.000000
   91        5.717832      5.717815   1.000000   1.000000
   92        5.717832      5.717815   1.000000   1.000000
   93        5.731814      5.731794   1.000000   1.000000
   94        5.731814      5.731794   1.000000   1.000000
   95        5.731898      5.731887   1.000000   1.000000
   96        5.757357      5.757342   1.000000   1.000000
   97        5.757358      5.757343   1.000000   1.000000
   98        5.781987      5.781992   1.000000   1.000000
   99        5.786449      5.786432   1.000000   1.000000
  100        5.786450      5.786432   1.000000   1.000000
  101        5.835588      5.835589   1.000000   1.000000
  102        5.866497      5.866489   1.000000   1.000000
  103        5.866498      5.866490   1.000000   1.000000
  104        5.870264      5.870261   1.000000   1.000000
  105        5.873165      5.873161   1.000000   1.000000
  106        5.873166      5.873162   1.000000   1.000000
  107        5.950215      5.950211   1.000000   1.000000
  108        5.984294      5.984294   1.000000   1.000000
  109        5.993619      5.993623   1.000000   1.000000
  110        5.993620      5.993624   1.000000   1.000000
  111        5.998626      5.998629   1.000000   1.000000
  112        6.040507      6.040499   1.000000   1.000000
  113        6.067722      6.067716   1.000000   1.000000
  114        6.096932      6.096925   1.000000   1.000000
  115        6.156115      6.156118   1.000000   1.000000
  116        6.160080      6.160080   1.000000   1.000000
  117        6.160080      6.160080   1.000000   1.000000
  118        6.187719      6.187711   1.000000   1.000000
  119        6.194835      6.194819   1.000000   1.000000
  120        6.194835      6.194819   1.000000   1.000000
  121        6.197387      6.197380   1.000000   1.000000
  122        6.257720      6.257720   1.000000   1.000000
  123        6.331096      6.331079   1.000000   1.000000
  124        6.331096      6.331079   1.000000   1.000000
  125        6.353433      6.353419   1.000000   1.000000
  126        6.385893      6.385876   1.000000   1.000000
  127        6.430168      6.430165   1.000000   1.000000
  128        6.430168      6.430166   1.000000   1.000000
  129        6.469931      6.469925   1.000000   1.000000
  130        6.525292      6.525281   1.000000   1.000000
  131        6.605481      6.605474   1.000000   1.000000
  132        6.611370      6.611362   1.000000   1.000000
  133        6.611371      6.611362   1.000000   1.000000
  134        6.615908      6.615899   1.000000   1.000000
  135        6.624710      6.624697   1.000000   1.000000
  136        6.624710      6.624697   1.000000   1.000000
  137        6.698116      6.698108   1.000000   1.000000
  138        6.698116      6.698108   1.000000   1.000000
  139        6.698634      6.698626   1.000000   1.000000
  140        6.703579      6.703570   1.000000   1.000000
  141        6.703580      6.703571   1.000000   1.000000
  142        6.757037      6.757030   1.000000   1.000000
  143        6.757037      6.757030   1.000000   1.000000
  144        6.802272      6.802264   1.000000   1.000000
  145        6.908160      6.908156   1.000000   1.000000
  146        6.919534      6.919531   1.000000   1.000000
  147        6.919534      6.919531   1.000000   1.000000
  148        7.074640      7.074629   1.000000   1.000000
  149        7.130591      7.130578   1.000000   1.000000
  150        7.130591      7.130578   1.000000   1.000000
  151        7.181310      7.181308   1.000000   1.000000
  152        7.214316      7.214314   1.000000   1.000000
  153        7.214316      7.214314   1.000000   1.000000
  154        7.326204      7.326198   1.000000   1.000000
  155        7.326204      7.326199   1.000000   1.000000
  156        7.403185      7.403182   1.000000   1.000000
  157        7.403185      7.403183   1.000000   1.000000
  158        7.414367      7.414361   1.000000   1.000000
  159        7.418269      7.418265   1.000000   1.000000
  160        7.479901      7.479900   1.000000   1.000000
  161        7.479902      7.479901   1.000000   1.000000
  162        7.520651      7.520650   1.000000   1.000000
  163        7.524505      7.524505   1.000000   1.000000
  164        7.525952      7.525952   1.000000   1.000000
  165        7.648607      7.648606   1.000000   1.000000
  166        7.651200      7.651200   1.000000   1.000000
  167        7.659902      7.659901   1.000000   1.000000
  168        7.694921      7.694917   1.000000   1.000000
  169        7.694921      7.694917   1.000000   1.000000
  170        7.719057      7.719053   1.000000   1.000000
  171        7.732772      7.732764   1.000000   1.000000
  172        7.774450      7.774449   1.000000   1.000000
  173        7.782911      7.782909   1.000000   1.000000
  174        7.782913      7.782910   1.000000   1.000000
  175        7.803482      7.803482   1.000000   1.000000
  176        7.803484      7.803484   1.000000   1.000000
  177        7.808662      7.808656   1.000000   1.000000
  178        7.808662      7.808657   1.000000   1.000000
  179        7.813527      7.813525   1.000000   1.000000
  180        7.825664      7.825659   1.000000   1.000000
  181        7.847351      7.847351   1.000000   1.000000
  182        7.847352      7.847352   1.000000   1.000000
  183        7.870688      7.870683   1.000000   1.000000
  184        7.870689      7.870684   1.000000   1.000000
  185        7.883153      7.883150   1.000000   1.000000
  186        7.883787      7.883786   1.000000   1.000000
  187        7.883788      7.883787   1.000000   1.000000
  188        7.905779      7.905775   1.000000   1.000000
  189        7.910178      7.910177   1.000000   1.000000
  190        7.918604      7.918605   1.000000   1.000000
  191        7.918605      7.918606   1.000000   1.000000
  192        7.935016      7.935016   1.000000   1.000000
  193        7.935017      7.935017   1.000000   1.000000
  194        7.967279      7.967279   1.000000   1.000000
  195        7.968807      7.968805   1.000000   1.000000
  196        7.968809      7.968807   1.000000   1.000000
  197        7.978150      7.978150   1.000000   1.000000
  198        7.978151      7.978151   1.000000   1.000000
  199        8.003058      8.003053   1.000000   1.000000
  200        8.012622      8.012623   1.000000   1.000000
  201        8.012624      8.012624   1.000000   1.000000
  202        8.024916      8.024916   1.000000   1.000000
  203        8.024917      8.024917   1.000000   1.000000
  204        8.042529      8.042524   1.000000   1.000000
  205        8.042530      8.042526   1.000000   1.000000
  206        8.042659      8.042657   1.000000   1.000000
  207        8.042660      8.042658   1.000000   1.000000
  208        8.071632      8.071626   1.000000   1.000000
  209        8.086419      8.086416   1.000000   1.000000
  210        8.086420      8.086417   1.000000   1.000000
  211        8.092140      8.092137   1.000000   1.000000
  212        8.092141      8.092138   1.000000   1.000000
  213        8.109567      8.109567   1.000000   1.000000
  214        8.109568      8.109567   1.000000   1.000000
  215        8.140880      8.140873   1.000000   1.000000
  216        8.163219      8.163219   1.000000   1.000000
  217        8.194662      8.194662   1.000000   1.000000
  218        8.203592      8.203592   1.000000   1.000000
  219        8.203593      8.203593   1.000000   1.000000
  220        8.235940      8.235935   1.000000   1.000000
  221        8.235941      8.235935   1.000000   1.000000
  222        8.242548      8.242545   1.000000   1.000000
  223        8.242549      8.242546   1.000000   1.000000
  224        8.248255      8.248250   1.000000   1.000000
  225        8.256429      8.256427   1.000000   1.000000
  226        8.256430      8.256428   1.000000   1.000000
  227        8.262197      8.262189   1.000000   1.000000
  228        8.297725      8.297721   1.000000   1.000000
  229        8.297725      8.297721   1.000000   1.000000
  230        8.327305      8.327299   1.000000   1.000000
  231        8.355502      8.355500   1.000000   1.000000
  232        8.355503      8.355501   1.000000   1.000000
  233        8.359243      8.359239   1.000000   1.000000
  234        8.359244      8.359240   1.000000   1.000000
  235        8.400519      8.400517   1.000000   1.000000
  236        8.400520      8.400518   1.000000   1.000000
  237        8.405486      8.405485   1.000000   1.000000
  238        8.405487      8.405486   1.000000   1.000000
  239        8.494597      8.494597   1.000000   1.000000
  240        8.494602      8.494599   1.000000   1.000000
  241        8.494602      8.494600   1.000000   1.000000
  242        8.503252      8.503252   1.000000   1.000000
  243        8.532550      8.532549   1.000000   1.000000
  244        8.532551      8.532550   1.000000   1.000000
  245        8.622683      8.622679   1.000000   1.000000
  246        8.622684      8.622680   1.000000   1.000000
  247        8.626588      8.626586   1.000000   1.000000
  248        8.626589      8.626587   1.000000   1.000000
  249        8.714527      8.714524   1.000000   1.000000
  250        8.714529      8.714526   1.000000   1.000000
  251        8.715730      8.715729   1.000000   1.000000
  252        8.715731      8.715730   1.000000   1.000000
  253        8.757036      8.757031   1.000000   1.000000
  254        8.757037      8.757032   1.000000   1.000000
  255        8.764218      8.764218   1.000000   1.000000
  256        8.764219      8.764219   1.000000   1.000000
  257        8.778293      8.778292   1.000000   1.000000
  258        8.778295      8.778294   1.000000   1.000000
  259        8.811994      8.811981   1.000000   1.000000
  260        8.835987      8.835987   1.000000   1.000000
  261        8.835989      8.835988   1.000000   1.000000
  262        8.836865      8.836865   1.000000   1.000000
  263        8.842550      8.842551   1.000000   1.000000
  264        8.864441      8.864440   1.000000   1.000000
  265        8.864442      8.864441   1.000000   1.000000
  266        8.896437      8.896437   1.000000   1.000000
  267        8.896438      8.896438   1.000000   1.000000
  268        8.904453      8.904438   1.000000   1.000000
  269        8.905638      8.905637   1.000000   1.000000
  270        8.928307      8.928305   1.000000   1.000000
  271        8.928308      8.928306   1.000000   1.000000
  272        8.940736      8.940733   1.000000   1.000000
  273        8.940736      8.940734   1.000000   1.000000
  274        8.972438      8.972448   1.000000   1.000000
  275        9.051351      9.051350   1.000000   1.000000
  276        9.051353      9.051351   1.000000   1.000000
  277        9.059991      9.059986   1.000000   1.000000
  278        9.059991      9.059987   1.000000   1.000000
  279        9.070858      9.070855   1.000000   1.000000
  280        9.070859      9.070856   1.000000   1.000000
  281        9.103672      9.103672   1.000000   1.000000
  282        9.139850      9.139812   1.000000   1.000000
  283        9.148643      9.148644   1.000000   1.000000
  284        9.159215      9.159199   1.000001   1.000001
  285        9.239046      9.239047   1.000009   1.000009
  286        9.239047      9.239048   1.000009   1.000009
  287        9.258633      9.258634   1.000017   1.000017
  288        9.283597      9.283594   1.000037   1.000037
  289        9.295435      9.295426   1.000053   1.000053
  290        9.299762      9.299764   1.000060   1.000060
  291        9.299763      9.299765   1.000060   1.000060
  292        9.320939      9.320937   1.000109   1.000109
  293        9.345539      9.345532   1.000211   1.000211
  294        9.345540      9.345533   1.000211   1.000211
  295        9.354536      9.354534   1.000267   1.000267
  296        9.385897      9.385896   1.000583   1.000583
  297        9.400974      9.400975   1.000832   1.000832
  298        9.403231      9.403221   1.000877   1.000877
  299        9.429143      9.429143   1.001562   1.001562
  300        9.431125      9.431124   1.001630   1.001630
  301        9.431125      9.431125   1.001630   1.001630
  302        9.439689      9.439691   1.001954   1.001954
  303        9.456113      9.456082   1.002733   1.002732
  304        9.490658      9.490659   1.005245   1.005245
  305        9.499274      9.499275   1.006098   1.006099
  306        9.502091      9.502093   1.006400   1.006400
  307        9.507936      9.507936   1.007063   1.007063
  308        9.550917      9.550919   1.013568   1.013568
  309        9.550918      9.550920   1.013568   1.013569
  310        9.577195      9.577200   1.018920   1.018922
  311        9.662508      9.662499   1.035223   1.035222
  312        9.663807      9.663804   1.035291   1.035291
  313        9.681847      9.681852   1.034927   1.034926
  314        9.686576      9.686581   1.034356   1.034355
  315        9.700447      9.700455   1.031275   1.031272
  316        9.739360      9.739360   1.007901   1.007901
  317        9.739362      9.739362   1.007900   1.007900
  318        9.769360      9.769369   0.970120   0.970106
  319        9.820374      9.820361   0.856391   0.856430
  320        9.820375      9.820361   0.856390   0.856429
  321        9.852967      9.852937   0.750771   0.750877
  322        9.885418      9.885428   0.625662   0.625624
  323        9.924392      9.924402   0.462372   0.462332
  324        9.934622      9.934611   0.419455   0.419498
  325       10.095560     10.095537  -0.011458  -0.011438
  326       10.144304     10.144316  -0.034341  -0.034343
  327       10.144304     10.144317  -0.034341  -0.034343
  328       10.177205     10.177191  -0.034494  -0.034496
  329       10.177206     10.177191  -0.034494  -0.034496
  330       10.350709     10.350715  -0.004345  -0.004345
  331       10.350709     10.350715  -0.004345  -0.004345
  332       10.392852     10.392842  -0.001891  -0.001892
  333       10.480015     10.480019  -0.000243  -0.000243
  334       10.480016     10.480021  -0.000243  -0.000243
  335       10.504209     10.504187  -0.000128  -0.000128
  336       10.611552     10.611552  -0.000005  -0.000005
  337       10.611555     10.611556  -0.000005  -0.000005
  338       10.680176     10.680171  -0.000000  -0.000000
  339       10.680180     10.680175  -0.000000  -0.000000
  340       10.732284     10.732278  -0.000000  -0.000000
  341       10.732288     10.732282  -0.000000  -0.000000
  342       10.847129     10.847126  -0.000000  -0.000000
  343       10.847134     10.847131  -0.000000  -0.000000
  344       10.913568     10.913572  -0.000000  -0.000000
  345       10.913575     10.913579  -0.000000  -0.000000
  346       10.932645     10.932648  -0.000000  -0.000000
  347       10.932652     10.932656  -0.000000  -0.000000
  348       10.954514     10.954512  -0.000000  -0.000000
  349       10.954520     10.954518  -0.000000  -0.000000
  350       10.961911     10.961911  -0.000000  -0.000000
  351       10.961918     10.961918  -0.000000  -0.000000
  352       10.968712     10.968710  -0.000000  -0.000000
  353       10.968719     10.968717  -0.000000  -0.000000
  354       11.062633     11.062631  -0.000000  -0.000000
  355       11.062639     11.062637  -0.000000  -0.000000
  356       11.095738     11.095719  -0.000000  -0.000000
  357       11.098271     11.098269  -0.000000  -0.000000
  358       11.098276     11.098274  -0.000000  -0.000000
  359       11.149237     11.149235  -0.000000  -0.000000
  360       11.149243     11.149240  -0.000000  -0.000000
  361       11.174337     11.174315  -0.000000  -0.000000
  362       11.174343     11.174321  -0.000000  -0.000000
  363       11.183627     11.183617  -0.000000  -0.000000
  364       11.183633     11.183623  -0.000000  -0.000000
  365       11.276366     11.276347  -0.000000  -0.000000
  366       11.287461     11.287448  -0.000000  -0.000000
  367       11.287466     11.287453  -0.000000  -0.000000
  368       11.288915     11.288906  -0.000000  -0.000000
  369       11.288918     11.288910  -0.000000  -0.000000
  370       11.447294     11.447284  -0.000000  -0.000000
  371       11.447297     11.447287  -0.000000  -0.000000
  372       11.500848     11.500838  -0.000000  -0.000000
  373       11.500850     11.500841  -0.000000  -0.000000
  374       11.518068     11.518057  -0.000000  -0.000000
  375       11.518070     11.518058  -0.000000  -0.000000
  376       11.559869     11.559868  -0.000000  -0.000000
  377       11.606047     11.606035  -0.000000  -0.000000
  378       11.606050     11.606038  -0.000000  -0.000000
  379       11.702104     11.702077  -0.000000  -0.000000
  380       11.702107     11.702079  -0.000000  -0.000000
  381       11.709986     11.709974  -0.000000  -0.000000
  382       11.709986     11.709975  -0.000000  -0.000000
  383       11.800732     11.800715  -0.000000  -0.000000
  384       11.800734     11.800718  -0.000000  -0.000000
  385       11.902935     11.902918  -0.000000  -0.000000
  386       11.902939     11.902922  -0.000000  -0.000000
  387       11.941391     11.941371  -0.000000  -0.000000
  388       11.953882     11.953882  -0.000000  -0.000000
  389       11.953883     11.953884  -0.000000  -0.000000
  390       12.186990     12.186984  -0.000000  -0.000000
  391       12.233365     12.233358  -0.000000  -0.000000
  392       12.233368     12.233361  -0.000000  -0.000000
  393       12.285093     12.285095  -0.000000  -0.000000
  394       12.285094     12.285096  -0.000000  -0.000000
  395       12.350380     12.350360  -0.000000  -0.000000
  396       12.427951     12.427946  -0.000000  -0.000000
  397       12.517895     12.517882  -0.000000  -0.000000
  398       12.517898     12.517884  -0.000000  -0.000000
  399       12.660192     12.660180  -0.000000  -0.000000
  400       12.660193     12.660181  -0.000000  -0.000000
  401       12.751710     12.751700  -0.000000  -0.000000
  402       12.751712     12.751759  -0.000000  -0.000000
  403       12.832458     12.832450  -0.000000  -0.000000
  404       12.902519     12.902521  -0.000000  -0.000000
  405       12.902547     12.902823  -0.000000  -0.000000
  406       12.968428     12.968417  -0.000000  -0.000000
  407       13.123134     13.123732  -0.000000  -0.000000
  408       13.123737     13.127654  -0.000000  -0.000000
  409       13.139675     13.139743  -0.000000  -0.000000
  410       13.140773     13.144655  -0.000000  -0.000000
  411       13.206511     13.206204  -0.000000  -0.000000
  412       13.216072     13.214821  -0.000000  -0.000000
  413       13.221986     13.241962  -0.000000  -0.000000
  414       13.260077     13.260308  -0.000000  -0.000000
  415       13.261800     13.269253  -0.000000  -0.000000
  416       13.293848     13.328316  -0.000000  -0.000000
 
  0.5000000E-01 -0.3469447E-17  0.0000000E+00  0.5000000E-02
    1      -47.455239    -47.455231   1.000000   1.000000
    2      -47.451294    -47.451285   1.000000   1.000000
    3      -47.428959    -47.428953   1.000000   1.000000
    4      -47.428881    -47.428875   1.000000   1.000000
    5      -47.326170    -47.326168   1.000000   1.000000
    6      -47.326146    -47.326143   1.000000   1.000000
    7      -47.269345    -47.269348   1.000000   1.000000
    8      -47.269260    -47.269263   1.000000   1.000000
    9      -47.177952    -47.177962   1.000000   1.000000
   10      -47.177630    -47.177640   1.000000   1.000000
   11      -47.155107    -47.155124   1.000000   1.000000
   12      -47.154661    -47.154678   1.000000   1.000000
   13      -47.087748    -47.087772   1.000000   1.000000
   14      -47.082565    -47.082589   1.000000   1.000000
   15      -23.735355    -23.735345   1.000000   1.000000
   16      -23.735210    -23.735200   1.000000   1.000000
   17      -23.731254    -23.731244   1.000000   1.000000
   18      -23.719897    -23.719887   1.000000   1.000000
   19      -23.719774    -23.719765   1.000000   1.000000
   20      -23.716927    -23.716918   1.000000   1.000000
   21      -23.699930    -23.699923   1.000000   1.000000
   22      -23.699805    -23.699797   1.000000   1.000000
   23      -23.697069    -23.697061   1.000000   1.000000
   24      -23.696657    -23.696650   1.000000   1.000000
   25      -23.691448    -23.691441   1.000000   1.000000
   26      -23.687305    -23.687297   1.000000   1.000000
   27      -23.605263    -23.605261   1.000000   1.000000
   28      -23.605250    -23.605248   1.000000   1.000000
   29      -23.605157    -23.605155   1.000000   1.000000
   30      -23.605145    -23.605142   1.000000   1.000000
   31      -23.580822    -23.580820   1.000000   1.000000
   32      -23.580800    -23.580797   1.000000   1.000000
   33      -23.549883    -23.549888   1.000000   1.000000
   34      -23.549837    -23.549841   1.000000   1.000000
   35      -23.549812    -23.549816   1.000000   1.000000
   36      -23.549765    -23.549769   1.000000   1.000000
   37      -23.515202    -23.515206   1.000000   1.000000
   38      -23.515125    -23.515129   1.000000   1.000000
   39      -23.466887    -23.466899   1.000000   1.000000
   40      -23.466833    -23.466845   1.000000   1.000000
   41      -23.466556    -23.466568   1.000000   1.000000
   42      -23.466501    -23.466513   1.000000   1.000000
   43      -23.431021    -23.431040   1.000000   1.000000
   44      -23.430590    -23.430609   1.000000   1.000000
   45      -23.430589    -23.430608   1.000000   1.000000
   46      -23.430157    -23.430177   1.000000   1.000000
   47      -23.415619    -23.415634   1.000000   1.000000
   48      -23.415246    -23.415261   1.000000   1.000000
   49      -23.396214    -23.396230   1.000000   1.000000
   50      -23.395831    -23.395847   1.000000   1.000000
   51      -23.369363    -23.369391   1.000000   1.000000
   52      -23.369254    -23.369282   1.000000   1.000000
   53      -23.357285    -23.357313   1.000000   1.000000
   54      -23.345634    -23.345662   1.000000   1.000000
   55      -23.345516    -23.345545   1.000000   1.000000
   56      -23.336639    -23.336668   1.000000   1.000000
   57        0.994343      0.994288   1.000000   1.000000
   58        1.231752      1.231704   1.000000   1.000000
   59        1.367134      1.367147   1.000000   1.000000
   60        1.681200      1.681196   1.000000   1.000000
   61        1.944485      1.944472   1.000000   1.000000
   62        2.457410      2.457398   1.000000   1.000000
   63        2.662679      2.662654   1.000000   1.000000
   64        3.400799      3.400775   1.000000   1.000000
   65        3.421277      3.421261   1.000000   1.000000
   66        4.258574      4.258560   1.000000   1.000000
   67        4.320664      4.320647   1.000000   1.000000
   68        4.918456      4.918448   1.000000   1.000000
   69        4.921771      4.921763   1.000000   1.000000
   70        5.116236      5.116236   1.000000   1.000000
   71        5.125192      5.125199   1.000000   1.000000
   72        5.136579      5.136587   1.000000   1.000000
   73        5.159887      5.159896   1.000000   1.000000
   74        5.163360      5.163369   1.000000   1.000000
   75        5.249297      5.249281   1.000000   1.000000
   76        5.294701      5.294700   1.000000   1.000000
   77        5.307532      5.307531   1.000000   1.000000
   78        5.313807      5.313805   1.000000   1.000000
   79        5.320603      5.320601   1.000000   1.000000
   80        5.428326      5.428313   1.000000   1.000000
   81        5.445413      5.445405   1.000000   1.000000
   82        5.455839      5.455816   1.000000   1.000000
   83        5.479434      5.479427   1.000000   1.000000
   84        5.493944      5.493939   1.000000   1.000000
   85        5.544198      5.544187   1.000000   1.000000
   86        5.557659      5.557648   1.000000   1.000000
   87        5.605030      5.605008   1.000000   1.000000
   88        5.653248      5.653236   1.000000   1.000000
   89        5.661672      5.661653   1.000000   1.000000
   90        5.667929      5.667907   1.000000   1.000000
   91        5.718652      5.718648   1.000000   1.000000
   92        5.723272      5.723257   1.000000   1.000000
   93        5.724335      5.724335   1.000000   1.000000
   94        5.744583      5.744564   1.000000   1.000000
   95        5.745287      5.745267   1.000000   1.000000