 running on   20 total cores
 distrk:  each k-point on   20 cores,    1 groups
 distr:  one band on    5 cores,    4 groups
 using from now: INCAR     
 vasp.5.4.1 05Feb16 (build Jan 17 2017 23:57:57) complex                        
  
 POSCAR found type information on POSCAR  Al Ni Ti
 POSCAR found :  3 types and      64 ions
 scaLAPACK will be used

 ----------------------------------------------------------------------------- 
|                                                                             |
|  ADVICE TO THIS USER RUNNING 'VASP/VAMP'   (HEAR YOUR MASTER'S VOICE ...):  |
|                                                                             |
|      You have a (more or less) 'large supercell' and for larger cells       |
|      it might be more efficient to use real space projection opertators     |
|      So try LREAL= Auto  in the INCAR   file.                               |
|      Mind: At the moment your POTCAR file does not contain real space       |
|       projectors, and has to be modified,  BUT if you                       |
|      want to do an extremely  accurate calculation you might also keep the  |
|      reciprocal projection scheme          (i.e. LREAL=.FALSE.)             |
|                                                                             |
 ----------------------------------------------------------------------------- 

 LDA part: xc-table for Pade appr. of Perdew
 POSCAR, INCAR and KPOINTS ok, starting setup
 WARNING: small aliasing (wrap around) errors must be expected
 FFT: planning ...
 WAVECAR not read
 entering main loop
       N       E                     dE             d eps       ncg     rms          rms(c)
RMM:   1     0.183924656950E+04    0.18392E+04   -0.25246E+05100672   0.170E+03
RMM:   2     0.697377950579E+01   -0.18323E+04   -0.41834E+04100672   0.361E+02
RMM:   3    -0.152229277028E+03   -0.15920E+03   -0.47092E+03100672   0.173E+02
RMM:   4    -0.328938999773E+03   -0.17671E+03   -0.10461E+03100672   0.845E+01
RMM:   5    -0.377904870950E+03   -0.48966E+02   -0.44506E+02100672   0.508E+01
RMM:   6    -0.404410450988E+03   -0.26506E+02   -0.26371E+02100672   0.399E+01
RMM:   7    -0.417429217310E+03   -0.13019E+02   -0.25934E+02100672   0.355E+01
RMM:   8    -0.429625608149E+03   -0.12196E+02   -0.18154E+02100672   0.295E+01
RMM:   9    -0.446201883206E+03   -0.16576E+02   -0.40515E+02322797   0.317E+01
RMM:  10    -0.459389815459E+03   -0.13188E+02   -0.17586E+02363009   0.117E+01
RMM:  11    -0.464510680007E+03   -0.51209E+01   -0.54186E+01364327   0.617E+00
RMM:  12    -0.467407795509E+03   -0.28971E+01   -0.28991E+01364623   0.393E+00    0.846E+01
RMM:  13    -0.469130411295E+03   -0.17226E+01   -0.85529E+02211239   0.757E+01    0.764E+01
RMM:  14    -0.585149002577E+03   -0.11602E+03   -0.55423E+02225798   0.466E+01    0.191E+02
RMM:  15    -0.101754338868E+04   -0.43239E+03   -0.42381E+02324802   0.253E+01    0.226E+02
RMM:  16    -0.608962444339E+03    0.40858E+03   -0.14208E+02245734   0.224E+01    0.170E+02
RMM:  17    -0.433116879111E+03    0.17585E+03   -0.68912E+01231163   0.154E+01    0.476E+01
RMM:  18    -0.449865010694E+03   -0.16748E+02   -0.13090E+02210123   0.222E+01    0.742E+01
RMM:  19    -0.432978237270E+03    0.16887E+02   -0.57160E+01214094   0.156E+01    0.707E+01
RMM:  20    -0.413246654085E+03    0.19732E+02   -0.26234E+01214420   0.104E+01    0.299E+01
RMM:  21    -0.407077009767E+03    0.61696E+01   -0.11860E+01213347   0.722E+00    0.239E+01
RMM:  22    -0.405196242283E+03    0.18808E+01   -0.19727E+00220738   0.290E+00    0.192E+01
WARNING in EDDRMM: call to ZHEGV failed, returncode =   6  3 19
RMM:  23    -0.405175240920E+03    0.21001E-01   -0.21388E-01338425   0.502E-01    0.193E+01
RMM:  24    -0.405131825219E+03    0.43416E-01   -0.88879E-01245094   0.172E+00    0.183E+01
RMM:  25    -0.404543846282E+03    0.58798E+00   -0.22344E+00237404   0.276E+00    0.164E+01
RMM:  26    -0.404592626256E+03   -0.48780E-01   -0.22370E+00226737   0.305E+00    0.136E+01
RMM:  27    -0.407861999587E+03   -0.32694E+01   -0.25155E+00249325   0.277E+00    0.210E+01
RMM:  28    -0.413601716723E+03   -0.57397E+01   -0.31400E+00231788   0.342E+00    0.403E+01
RMM:  29    -0.408666380508E+03    0.49353E+01   -0.14496E+00220393   0.248E+00    0.161E+01
RMM:  30    -0.409661626974E+03   -0.99525E+00   -0.38458E+00226778   0.354E+00    0.163E+01
RMM:  31    -0.409857939456E+03   -0.19631E+00   -0.17604E+00237495   0.248E+00    0.125E+01
RMM:  32    -0.409907619018E+03   -0.49680E-01   -0.54001E-01270229   0.128E+00    0.126E+01
RMM:  33    -0.409966210917E+03   -0.58592E-01   -0.20440E-01252669   0.862E-01    0.123E+01
RMM:  34    -0.410739983750E+03   -0.77377E+00   -0.74340E-01231049   0.166E+00    0.118E+01
RMM:  35    -0.410861407525E+03   -0.12142E+00   -0.63933E-01231683   0.150E+00    0.956E+00
RMM:  36    -0.410943644591E+03   -0.82237E-01   -0.66553E-01232899   0.151E+00    0.778E+00
RMM:  37    -0.410740710176E+03    0.20293E+00   -0.26877E-01244466   0.922E-01    0.589E+00
RMM:  38    -0.410625625966E+03    0.11508E+00   -0.14220E-01265914   0.638E-01    0.463E+00
RMM:  39    -0.410521437183E+03    0.10419E+00   -0.83889E-02274712   0.509E-01    0.363E+00
RMM:  40    -0.410442428993E+03    0.79008E-01   -0.43916E-02282556   0.352E-01    0.288E+00
RMM:  41    -0.410366751992E+03    0.75677E-01   -0.31041E-02279482   0.289E-01    0.204E+00
RMM:  42    -0.410335121037E+03    0.31631E-01   -0.10956E-02286136   0.169E-01    0.159E+00
WARNING in EDDRMM: call to ZHEGV failed, returncode =   6  3 19
WARNING in EDDRMM: call to ZHEGV failed, returncode =   6  3 15
WARNING in EDDRMM: call to ZHEGV failed, returncode =   6  3 18
RMM:  43    -0.410312479437E+03    0.22642E-01   -0.47717E-03274006   0.107E-01    0.128E+00
RMM:  44    -0.410300656497E+03    0.11823E-01   -0.24564E-03266634   0.875E-02    0.106E+00
RMM:  45    -0.410289291586E+03    0.11365E-01   -0.23330E-03256157   0.832E-02    0.790E-01
RMM:  46    -0.410283597975E+03    0.56936E-02   -0.13624E-03261300   0.626E-02    0.580E-01
RMM:  47    -0.410278138380E+03    0.54596E-02   -0.16942E-03256344   0.729E-02    0.309E-01
WARNING in EDDRMM: call to ZHEGV failed, returncode =   6  3 17
RMM:  48    -0.410275804300E+03    0.23341E-02   -0.17487E-03252018   0.749E-02    0.118E-01
WARNING in EDDRMM: call to ZHEGV failed, returncode =   6  3 59
RMM:  49    -0.410275824021E+03   -0.19721E-04   -0.48368E-04213935   0.315E-02
   1 F= -.41027582E+03 E0= -.41031267E+03  d E =-.410276E+03  mag=    -0.0066
 curvature:   0.00 expect dE= 0.000E+00 dE for cont linesearch  0.000E+00
 trial: gam= 0.00000 g(F)=  0.186E-02 g(S)=  0.285E-01 ort = 0.000E+00 (trialstep = 0.100E+01)
 search vector abs. value=  0.303E-01
 bond charge predicted
       N       E                     dE             d eps       ncg     rms          rms(c)
RMM:   1    -0.411213296995E+03   -0.93749E+00   -0.12896E+01214860   0.969E+00    0.832E+00
RMM:   2    -0.415162616889E+03   -0.39493E+01   -0.13101E+01212112   0.861E+00    0.271E+01
RMM:   3    -0.436830295524E+03   -0.21668E+02   -0.76109E+00222715   0.531E+00    0.660E+01
RMM:   4    -0.411403669316E+03    0.25427E+02   -0.34893E+00223655   0.350E+00    0.835E+00
RMM:   5    -0.410847870965E+03    0.55580E+00   -0.22510E+00216770   0.318E+00    0.676E+00
RMM:   6    -0.410369818921E+03    0.47805E+00   -0.58649E-01215467   0.181E+00    0.256E+00
RMM:   7    -0.410327741087E+03    0.42078E-01   -0.11499E-01225600   0.692E-01    0.225E+00
RMM:   8    -0.410300498373E+03    0.27243E-01   -0.81553E-02226113   0.579E-01    0.134E+00
RMM:   9    -0.410284554627E+03    0.15944E-01   -0.27264E-02231549   0.321E-01    0.730E-01
RMM:  10    -0.410286487009E+03   -0.19324E-02   -0.14403E-02227655   0.240E-01    0.783E-01
WARNING in EDDRMM: call to ZHEGV failed, returncode =   8  4 29
RMM:  11    -0.410284496972E+03    0.19900E-02   -0.84101E-03226024   0.195E-01    0.528E-01
WARNING in EDDRMM: call to ZHEGV failed, returncode =   6  3 31
WARNING in EDDRMM: call to ZHEGV failed, returncode =   8  4 25
RMM:  12    -0.410283686878E+03    0.81009E-03   -0.28456E-03228231   0.101E-01    0.527E-01
RMM:  13    -0.410283283670E+03    0.40321E-03   -0.17850E-03219377   0.869E-02    0.466E-01
WARNING in EDDRMM: call to ZHEGV failed, returncode =   8  4 21
WARNING in EDDRMM: call to ZHEGV failed, returncode =   6  3 80
WARNING in EDDRMM: call to ZHEGV failed, returncode =   8  4 73
WARNING in EDDRMM: call to ZHEGV failed, returncode =   6  3 26
RMM:  14    -0.410282535078E+03    0.74859E-03   -0.78435E-04208415   0.599E-02    0.359E-01
WARNING in EDDRMM: call to ZHEGV failed, returncode =   8  4 19
WARNING in EDDRMM: call to ZHEGV failed, returncode =   6  3 17
WARNING in EDDRMM: call to ZHEGV failed, returncode =   8  4 16
WARNING in EDDRMM: call to ZHEGV failed, returncode =   6  3 16
WARNING in EDDRMM: call to ZHEGV failed, returncode =   8  4 16
RMM:  15    -0.410281281143E+03    0.12539E-02   -0.98151E-04225080   0.574E-02    0.188E-01
WARNING in EDDRMM: call to ZHEGV failed, returncode =   8  4 18
RMM:  16    -0.410281038438E+03    0.24271E-03   -0.33099E-04161482   0.360E-02    0.979E-02
WARNING in EDDRMM: call to ZHEGV failed, returncode =   6  3 82
RMM:  17    -0.410281001890E+03    0.36548E-04   -0.13163E-04125017   0.292E-02
   2 F= -.41028100E+03 E0= -.41031874E+03  d E =-.517787E-02  mag=    -0.0033
 trial-energy change:   -0.005178  1 .order   -0.009178   -0.030312    0.011956
 step:   0.5787(harm=  0.7171)  dis= 0.00119  next Energy=  -410.283820 (dE=-0.800E-02)
 bond charge predicted
       N       E                     dE             d eps       ncg     rms          rms(c)
RMM:   1    -0.410454027102E+03   -0.17299E+00   -0.23180E+00215084   0.405E+00    0.351E+00
RMM:   2    -0.411073627229E+03   -0.61960E+00   -0.23294E+00212168   0.368E+00    0.746E+00
RMM:   3    -0.410808785891E+03    0.26484E+00   -0.12804E+00207990   0.258E+00    0.664E+00
RMM:   4    -0.410387479044E+03    0.42131E+00   -0.21157E-01240317   0.846E-01    0.221E+00
RMM:   5    -0.410355007030E+03    0.32472E-01   -0.83417E-02218018   0.621E-01    0.127E+00
RMM:   6    -0.410303630723E+03    0.51376E-01   -0.32756E-02212942   0.390E-01    0.920E-01
WARNING in EDDRMM: call to ZHEGV failed, returncode =   6  3 16
WARNING in EDDRMM: call to ZHEGV failed, returncode =   8  4 24
WARNING in EDDRMM: call to ZHEGV failed, returncode =   8  4 26
RMM:   7    -0.410290864055E+03    0.12767E-01   -0.18859E-02234599   0.264E-01    0.772E-01
WARNING in EDDRMM: call to ZHEGV failed, returncode =   6  3 16
WARNING in EDDRMM: call to ZHEGV failed, returncode =   8  4 20
RMM:   8    -0.410286439294E+03    0.44248E-02   -0.88979E-03228215   0.192E-01    0.308E-01
WARNING in EDDRMM: call to ZHEGV failed, returncode =   8  4 26
WARNING in EDDRMM: call to ZHEGV failed, returncode =   8  4 82
RMM:   9    -0.410286214513E+03    0.22478E-03   -0.15676E-03221797   0.772E-02    0.240E-01
WARNING in EDDRMM: call to ZHEGV failed, returncode =   6  3 30
WARNING in EDDRMM: call to ZHEGV failed, returncode =   8  4 25
WARNING in EDDRMM: call to ZHEGV failed, returncode =   6  3 30
WARNING in EDDRMM: call to ZHEGV failed, returncode =   6  3 26
RMM:  10    -0.410286046312E+03    0.16820E-03   -0.53717E-04179899   0.479E-02    0.214E-01
WARNING in EDDRMM: call to ZHEGV failed, returncode =   8  4 80
WARNING in EDDRMM: call to ZHEGV failed, returncode =   6  3 23
RMM:  11    -0.410286019852E+03    0.26459E-04   -0.67437E-04207791   0.570E-02
   3 F= -.41028602E+03 E0= -.41032352E+03  d E =-.101958E-01  mag=    -0.0021
 curvature:  -0.27 expect dE=-0.799E-02 dE for cont linesearch -0.649E-02
 ZBRENT: interpolating
 opt :   0.3069  next Energy=  -410.289669 (dE=-0.138E-01)
 bond charge predicted
       N       E                     dE             d eps       ncg     rms          rms(c)
RMM:   1    -0.410353760837E+03   -0.67715E-01   -0.95007E-01214362   0.262E+00    0.231E+00
RMM:   2    -0.410579089385E+03   -0.22533E+00   -0.99493E-01211646   0.242E+00    0.502E+00
RMM:   3    -0.410456557236E+03    0.12253E+00   -0.55391E-01209470   0.175E+00    0.307E+00
RMM:   4    -0.410324248215E+03    0.13231E+00   -0.89359E-02238317   0.551E-01    0.149E+00
RMM:   5    -0.410297567789E+03    0.26680E-01   -0.31334E-02217085   0.390E-01    0.674E-01
RMM:   6    -0.410285553797E+03    0.12014E-01   -0.11927E-02210664   0.235E-01    0.412E-01
RMM:   7    -0.410285244113E+03    0.30968E-03   -0.62573E-03232417   0.150E-01    0.401E-01
WARNING in EDDRMM: call to ZHEGV failed, returncode =   6  3 21
RMM:   8    -0.410283713881E+03    0.15302E-02   -0.25638E-03222497   0.105E-01    0.204E-01
WARNING in EDDRMM: call to ZHEGV failed, returncode =   8  4 30
RMM:   9    -0.410283525185E+03    0.18870E-03   -0.56330E-04188035   0.495E-02    0.160E-01
WARNING in EDDRMM: call to ZHEGV failed, returncode =   6  3 26
WARNING in EDDRMM: call to ZHEGV failed, returncode =   6  3 22
WARNING in EDDRMM: call to ZHEGV failed, returncode =   6  3 30
RMM:  10    -0.410283490962E+03    0.34223E-04   -0.27529E-04155818   0.386E-02
   4 F= -.41028349E+03 E0= -.41032061E+03  d E =-.766694E-02  mag=    -0.0014
 curvature:  -0.15 expect dE=-0.141E-02 dE for cont linesearch -0.889E-03
 trial: gam= 0.00000 g(F)=  0.143E-02 g(S)=  0.779E-02 ort =-0.132E-01 (trialstep = 0.861E+00)
 search vector abs. value=  0.921E-02
 bond charge predicted
       N       E                     dE             d eps       ncg     rms          rms(c)
RMM:   1    -0.410467565213E+03   -0.18404E+00   -0.27886E+00213809   0.441E+00    0.380E+00
RMM:   2    -0.411093525008E+03   -0.62596E+00   -0.27450E+00212936   0.401E+00    0.791E+00
RMM:   3    -0.410756548373E+03    0.33698E+00   -0.14866E+00208017   0.285E+00    0.626E+00
RMM:   4    -0.410388012787E+03    0.36854E+00   -0.21792E-01244409   0.849E-01    0.231E+00
RMM:   5    -0.410331191149E+03    0.56822E-01   -0.79133E-02217061   0.611E-01    0.115E+00
RMM:   6    -0.410286640936E+03    0.44550E-01   -0.31869E-02216895   0.381E-01    0.926E-01
RMM:   7    -0.410276314910E+03    0.10326E-01   -0.20582E-02237590   0.275E-01    0.708E-01
WARNING in EDDRMM: call to ZHEGV failed, returncode =   6  3 20
RMM:   8    -0.410272535225E+03    0.37797E-02   -0.81848E-03231236   0.183E-01    0.318E-01
RMM:   9    -0.410272334332E+03    0.20089E-03   -0.16319E-03224201   0.799E-02    0.256E-01
WARNING in EDDRMM: call to ZHEGV failed, returncode =   6  3 77
WARNING in EDDRMM: call to ZHEGV failed, returncode =   6  3 26
WARNING in EDDRMM: call to ZHEGV failed, returncode =   6  3 24
RMM:  10    -0.410272243176E+03    0.91156E-04   -0.54728E-04182176   0.490E-02
   5 F= -.41027224E+03 E0= -.41030893E+03  d E =0.112478E-01  mag=    -0.0010
 trial-energy change:    0.011248  1 .order   -0.004396   -0.007934   -0.000857
 step:   0.9657(harm=  0.9657)  dis= 0.00204  next Energy=  -410.287939 (dE=-0.445E-02)
 bond charge predicted
       N       E                     dE             d eps       ncg     rms          rms(c)
RMM:   1    -0.410273136935E+03   -0.80260E-03   -0.39080E-02210745   0.542E-01    0.556E-01
RMM:   2    -0.410288054777E+03   -0.14918E-01   -0.64042E-02208642   0.597E-01    0.130E+00
RMM:   3    -0.410271767914E+03    0.16287E-01   -0.37120E-02209678   0.467E-01    0.396E-01
RMM:   4    -0.410271100174E+03    0.66774E-03   -0.57350E-03207282   0.163E-01    0.372E-01
WARNING in EDDRMM: call to ZHEGV failed, returncode =   6  3 20
WARNING in EDDRMM: call to ZHEGV failed, returncode =   8  4 20
RMM:   5    -0.410270284496E+03    0.81568E-03   -0.13618E-03201832   0.831E-02    0.125E-01
WARNING in EDDRMM: call to ZHEGV failed, returncode =   6  3 17
RMM:   6    -0.410269874614E+03    0.40988E-03   -0.21850E-04140482   0.309E-02    0.909E-02
RMM:   7    -0.410269899104E+03   -0.24489E-04   -0.22210E-04141865   0.374E-02
   6 F= -.41026990E+03 E0= -.41030651E+03  d E =0.135919E-01  mag=    -0.0008
 curvature:  -0.48 expect dE=-0.137E-01 dE for cont linesearch -0.988E-02
 ZBRENT: interpolating
 opt :   0.8684  next Energy=  -410.272247 (dE= 0.112E-01)
 bond charge predicted
       N       E                     dE             d eps       ncg     rms          rms(c)
RMM:   1    -0.410274365827E+03   -0.44912E-02   -0.37563E-02216710   0.499E-01    0.388E-01
RMM:   2    -0.410279003407E+03   -0.46376E-02   -0.26546E-02201550   0.397E-01    0.797E-01
RMM:   3    -0.410276547693E+03    0.24557E-02   -0.13793E-02201271   0.277E-01    0.419E-01
RMM:   4    -0.410273982056E+03    0.25656E-02   -0.31520E-03215765   0.103E-01    0.298E-01
RMM:   5    -0.410272092131E+03    0.18899E-02   -0.11239E-03188856   0.785E-02    0.100E-01
RMM:   6    -0.410271996642E+03    0.95489E-04   -0.32382E-04139497   0.431E-02
   7 F= -.41027200E+03 E0= -.41030854E+03  d E =0.114943E-01  mag=    -0.0006
 curvature:  -0.00 expect dE=-0.503E-05 dE for cont linesearch -0.363E-05
 trial: gam= 0.00000 g(F)=  0.794E-03 g(S)=  0.286E-01 ort =-0.140E-01 (trialstep = 0.271E+00)
 search vector abs. value=  0.294E-01
 reached required accuracy - stopping structural energy minimisation
