<?xml version="1.0" encoding="ISO-8859-1"?>
<modeling>
 <generator>
  <i name="program" type="string">vasp </i>
  <i name="version" type="string">5.4.1  </i>
  <i name="subversion" type="string">05Feb16 (build Jan 17 2017 23:57:57) complex                          parallel </i>
  <i name="platform" type="string">IFC91_ompi </i>
  <i name="date" type="string">2019 08 22 </i>
  <i name="time" type="string">16:36:45 </i>
 </generator>
 <incar>
  <i type="string" name="SYSTEM"> Test of VASP submission</i>
  <i type="string" name="PREC">normal</i>
  <i type="int" name="IALGO">    48</i>
  <i type="int" name="ISPIN">     2</i>
  <i type="int" name="NELM">   100</i>
  <i type="int" name="IBRION">     2</i>
  <i type="int" name="NSW">    63</i>
  <i type="int" name="ISIF">     3</i>
  <i type="int" name="ISYM">     2</i>
  <i name="ENCUT">    400.00000000</i>
  <v name="MAGMOM">      0.00000000      0.00000000      1.00000000      1.00000000      1.00000000      1.00000000      1.00000000      1.00000000      1.00000000      1.00000000      1.00000000      1.00000000      1.00000000      1.00000000      1.00000000      1.00000000      1.00000000      1.00000000      1.00000000      1.00000000
      1.00000000      1.00000000      1.00000000      1.00000000      1.00000000      1.00000000      1.00000000      1.00000000      1.00000000      1.00000000      1.00000000      1.00000000      1.00000000      1.00000000      1.00000000      1.00000000      1.00000000      1.00000000      1.00000000      1.00000000
      1.00000000      1.00000000      1.00000000      1.00000000      1.00000000      1.00000000      1.00000000      1.00000000      1.00000000      1.00000000      0.00000000      0.00000000      0.00000000      0.00000000      0.00000000      0.00000000      0.00000000      0.00000000      0.00000000      0.00000000
      0.00000000      0.00000000      0.00000000      0.00000000</v>
  <i type="int" name="ISMEAR">     1</i>
  <i name="SIGMA">      0.20000000</i>
  <i type="logical" name="LWAVE"> F  </i>
  <i type="logical" name="LCHARG"> F  </i>
  <v type="int" name="KPOINT_BSE">    -1     0     0     0</v>
  <i type="int" name="NELM">   100</i>
 </incar>
 <kpoints>
  <generation param="Gamma">
   <v type="int" name="divisions">      20       20        3 </v>
   <v name="usershift">      0.00000000       0.00000000       0.00000000 </v>
   <v name="genvec1">      0.05000000       0.00000000       0.00000000 </v>
   <v name="genvec2">      0.00000000       0.05000000       0.00000000 </v>
   <v name="genvec3">      0.00000000       0.00000000       0.33333333 </v>
   <v name="shift">      0.00000000       0.00000000       0.00000000 </v>
  </generation>
  <varray name="kpointlist" >
   <v>       0.00000000       0.00000000       0.00000000 </v>
   <v>       0.05000000      -0.00000000       0.00000000 </v>
   <v>       0.10000000      -0.00000000       0.00000000 </v>
   <v>       0.15000000       0.00000000       0.00000000 </v>
   <v>       0.20000000       0.00000000       0.00000000 </v>
   <v>       0.25000000      -0.00000000       0.00000000 </v>
   <v>       0.30000000       0.00000000       0.00000000 </v>
   <v>       0.35000000       0.00000000       0.00000000 </v>
   <v>       0.40000000       0.00000000       0.00000000 </v>
   <v>       0.45000000       0.00000000       0.00000000 </v>
   <v>       0.50000000      -0.00000000       0.00000000 </v>
   <v>       0.05000000       0.05000000       0.00000000 </v>
   <v>       0.10000000       0.05000000       0.00000000 </v>
   <v>       0.15000000       0.05000000       0.00000000 </v>
   <v>       0.20000000       0.05000000       0.00000000 </v>
   <v>       0.25000000       0.05000000       0.00000000 </v>
   <v>       0.30000000       0.05000000       0.00000000 </v>
   <v>       0.35000000       0.05000000       0.00000000 </v>
   <v>       0.40000000       0.05000000       0.00000000 </v>
   <v>       0.45000000       0.05000000       0.00000000 </v>
   <v>       0.10000000       0.10000000       0.00000000 </v>
   <v>       0.15000000       0.10000000       0.00000000 </v>
   <v>       0.20000000       0.10000000       0.00000000 </v>
   <v>       0.25000000       0.10000000       0.00000000 </v>
   <v>       0.30000000       0.10000000       0.00000000 </v>
   <v>       0.35000000       0.10000000       0.00000000 </v>
   <v>       0.40000000       0.10000000       0.00000000 </v>
   <v>       0.45000000       0.10000000       0.00000000 </v>
   <v>       0.15000000       0.15000000       0.00000000 </v>
   <v>       0.20000000       0.15000000       0.00000000 </v>
   <v>       0.25000000       0.15000000       0.00000000 </v>
   <v>       0.30000000       0.15000000       0.00000000 </v>
   <v>       0.35000000       0.15000000       0.00000000 </v>
   <v>       0.40000000       0.15000000       0.00000000 </v>
   <v>       0.20000000       0.20000000       0.00000000 </v>
   <v>       0.25000000       0.20000000       0.00000000 </v>
   <v>       0.30000000       0.20000000       0.00000000 </v>
   <v>       0.35000000       0.20000000       0.00000000 </v>
   <v>       0.40000000       0.20000000       0.00000000 </v>
   <v>       0.25000000       0.25000000       0.00000000 </v>
   <v>       0.30000000       0.25000000       0.00000000 </v>
   <v>       0.35000000       0.25000000       0.00000000 </v>
   <v>       0.30000000       0.30000000       0.00000000 </v>
   <v>       0.35000000       0.30000000       0.00000000 </v>
   <v>       0.00000000       0.00000000       0.33333333 </v>
   <v>       0.05000000      -0.00000000       0.33333333 </v>
   <v>       0.10000000      -0.00000000       0.33333333 </v>
   <v>       0.15000000       0.00000000       0.33333333 </v>
   <v>       0.20000000       0.00000000       0.33333333 </v>
   <v>       0.25000000      -0.00000000       0.33333333 </v>
   <v>       0.30000000       0.00000000       0.33333333 </v>
   <v>       0.35000000       0.00000000       0.33333333 </v>
   <v>       0.40000000       0.00000000       0.33333333 </v>
   <v>       0.45000000       0.00000000       0.33333333 </v>
   <v>       0.50000000      -0.00000000       0.33333333 </v>
   <v>      -0.45000000       0.00000000       0.33333333 </v>
   <v>      -0.40000000       0.00000000       0.33333333 </v>
   <v>      -0.35000000       0.00000000       0.33333333 </v>
   <v>      -0.30000000       0.00000000       0.33333333 </v>
   <v>      -0.25000000       0.00000000       0.33333333 </v>
   <v>      -0.20000000       0.00000000       0.33333333 </v>
   <v>      -0.15000000       0.00000000       0.33333333 </v>
   <v>      -0.10000000       0.00000000       0.33333333 </v>
   <v>      -0.05000000       0.00000000       0.33333333 </v>
   <v>       0.05000000       0.05000000       0.33333333 </v>
   <v>       0.10000000       0.05000000       0.33333333 </v>
   <v>       0.15000000       0.05000000       0.33333333 </v>
   <v>       0.20000000       0.05000000       0.33333333 </v>
   <v>       0.25000000       0.05000000       0.33333333 </v>
   <v>       0.30000000       0.05000000       0.33333333 </v>
   <v>       0.35000000       0.05000000       0.33333333 </v>
   <v>       0.40000000       0.05000000       0.33333333 </v>
   <v>       0.45000000       0.05000000       0.33333333 </v>
   <v>       0.50000000       0.05000000       0.33333333 </v>
   <v>      -0.45000000       0.05000000       0.33333333 </v>
   <v>      -0.40000000       0.05000000       0.33333333 </v>
   <v>      -0.35000000       0.05000000       0.33333333 </v>
   <v>      -0.30000000       0.05000000       0.33333333 </v>
   <v>      -0.25000000       0.05000000       0.33333333 </v>
   <v>      -0.20000000       0.05000000       0.33333333 </v>
   <v>      -0.15000000       0.05000000       0.33333333 </v>
   <v>       0.10000000       0.10000000       0.33333333 </v>
   <v>       0.15000000       0.10000000       0.33333333 </v>
   <v>       0.20000000       0.10000000       0.33333333 </v>
   <v>       0.25000000       0.10000000       0.33333333 </v>
   <v>       0.30000000       0.10000000       0.33333333 </v>
   <v>       0.35000000       0.10000000       0.33333333 </v>
   <v>       0.40000000       0.10000000       0.33333333 </v>
   <v>       0.45000000       0.10000000       0.33333333 </v>
   <v>       0.50000000       0.10000000       0.33333333 </v>
   <v>      -0.45000000       0.10000000       0.33333333 </v>
   <v>      -0.40000000       0.10000000       0.33333333 </v>
   <v>      -0.35000000       0.10000000       0.33333333 </v>
   <v>      -0.30000000       0.10000000       0.33333333 </v>
   <v>      -0.25000000       0.10000000       0.33333333 </v>
   <v>       0.15000000       0.15000000       0.33333333 </v>
   <v>       0.20000000       0.15000000       0.33333333 </v>
   <v>       0.25000000       0.15000000       0.33333333 </v>
   <v>       0.30000000       0.15000000       0.33333333 </v>
   <v>       0.35000000       0.15000000       0.33333333 </v>
   <v>       0.40000000       0.15000000       0.33333333 </v>
   <v>       0.45000000       0.15000000       0.33333333 </v>
   <v>       0.50000000       0.15000000       0.33333333 </v>
   <v>      -0.45000000       0.15000000       0.33333333 </v>
   <v>      -0.40000000       0.15000000       0.33333333 </v>
   <v>      -0.35000000       0.15000000       0.33333333 </v>
   <v>       0.20000000       0.20000000       0.33333333 </v>
   <v>       0.25000000       0.20000000       0.33333333 </v>
   <v>       0.30000000       0.20000000       0.33333333 </v>
   <v>       0.35000000       0.20000000       0.33333333 </v>
   <v>       0.40000000       0.20000000       0.33333333 </v>
   <v>       0.45000000       0.20000000       0.33333333 </v>
   <v>       0.50000000       0.20000000       0.33333333 </v>
   <v>      -0.45000000       0.20000000       0.33333333 </v>
   <v>       0.25000000       0.25000000       0.33333333 </v>
   <v>       0.30000000       0.25000000       0.33333333 </v>
   <v>       0.35000000       0.25000000       0.33333333 </v>
   <v>       0.40000000       0.25000000       0.33333333 </v>
   <v>       0.45000000       0.25000000       0.33333333 </v>
   <v>       0.30000000       0.30000000       0.33333333 </v>
   <v>       0.35000000       0.30000000       0.33333333 </v>
  </varray>
  <varray name="weights" >
   <v>       0.00083333 </v>
   <v>       0.00500000 </v>
   <v>       0.00500000 </v>
   <v>       0.00500000 </v>
   <v>       0.00500000 </v>
   <v>       0.00500000 </v>
   <v>       0.00500000 </v>
   <v>       0.00500000 </v>
   <v>       0.00500000 </v>
   <v>       0.00500000 </v>
   <v>       0.00250000 </v>
   <v>       0.00500000 </v>
   <v>       0.01000000 </v>
   <v>       0.01000000 </v>
   <v>       0.01000000 </v>
   <v>       0.01000000 </v>
   <v>       0.01000000 </v>
   <v>       0.01000000 </v>
   <v>       0.01000000 </v>
   <v>       0.01000000 </v>
   <v>       0.00500000 </v>
   <v>       0.01000000 </v>
   <v>       0.01000000 </v>
   <v>       0.01000000 </v>
   <v>       0.01000000 </v>
   <v>       0.01000000 </v>
   <v>       0.01000000 </v>
   <v>       0.00500000 </v>
   <v>       0.00500000 </v>
   <v>       0.01000000 </v>
   <v>       0.01000000 </v>
   <v>       0.01000000 </v>
   <v>       0.01000000 </v>
   <v>       0.01000000 </v>
   <v>       0.00500000 </v>
   <v>       0.01000000 </v>
   <v>       0.01000000 </v>
   <v>       0.01000000 </v>
   <v>       0.00500000 </v>
   <v>       0.00500000 </v>
   <v>       0.01000000 </v>
   <v>       0.01000000 </v>
   <v>       0.00500000 </v>
   <v>       0.00500000 </v>
   <v>       0.00166667 </v>
   <v>       0.00500000 </v>
   <v>       0.00500000 </v>
   <v>       0.00500000 </v>
   <v>       0.00500000 </v>
   <v>       0.00500000 </v>
   <v>       0.00500000 </v>
   <v>       0.00500000 </v>
   <v>       0.00500000 </v>
   <v>       0.00500000 </v>
   <v>       0.00500000 </v>
   <v>       0.00500000 </v>
   <v>       0.00500000 </v>
   <v>       0.00500000 </v>
   <v>       0.00500000 </v>
   <v>       0.00500000 </v>
   <v>       0.00500000 </v>
   <v>       0.00500000 </v>
   <v>       0.00500000 </v>
   <v>       0.00500000 </v>
   <v>       0.01000000 </v>
   <v>       0.01000000 </v>
   <v>       0.01000000 </v>
   <v>       0.01000000 </v>
   <v>       0.01000000 </v>
   <v>       0.01000000 </v>
   <v>       0.01000000 </v>
   <v>       0.01000000 </v>
   <v>       0.01000000 </v>
   <v>       0.01000000 </v>
   <v>       0.01000000 </v>
   <v>       0.01000000 </v>
   <v>       0.01000000 </v>
   <v>       0.01000000 </v>
   <v>       0.01000000 </v>
   <v>       0.01000000 </v>
   <v>       0.01000000 </v>
   <v>       0.01000000 </v>
   <v>       0.01000000 </v>
   <v>       0.01000000 </v>
   <v>       0.01000000 </v>
   <v>       0.01000000 </v>
   <v>       0.01000000 </v>
   <v>       0.01000000 </v>
   <v>       0.01000000 </v>
   <v>       0.01000000 </v>
   <v>       0.01000000 </v>
   <v>       0.01000000 </v>
   <v>       0.01000000 </v>
   <v>       0.01000000 </v>
   <v>       0.01000000 </v>
   <v>       0.01000000 </v>
   <v>       0.01000000 </v>
   <v>       0.01000000 </v>
   <v>       0.01000000 </v>
   <v>       0.01000000 </v>
   <v>       0.01000000 </v>
   <v>       0.01000000 </v>
   <v>       0.01000000 </v>
   <v>       0.01000000 </v>
   <v>       0.01000000 </v>
   <v>       0.01000000 </v>
   <v>       0.01000000 </v>
   <v>       0.01000000 </v>
   <v>       0.01000000 </v>
   <v>       0.01000000 </v>
   <v>       0.01000000 </v>
   <v>       0.01000000 </v>
   <v>       0.01000000 </v>
   <v>       0.01000000 </v>
   <v>       0.01000000 </v>
   <v>       0.01000000 </v>
   <v>       0.01000000 </v>
   <v>       0.01000000 </v>
   <v>       0.01000000 </v>
   <v>       0.01000000 </v>
   <v>       0.01000000 </v>
  </varray>
 </kpoints>
 <parameters>
  <separator name="general" >
   <i type="string" name="SYSTEM">Test of VASP submission</i>
   <i type="logical" name="LCOMPAT"> F  </i>
  </separator>
  <separator name="electronic" >
   <i type="string" name="PREC">normal</i>
   <i name="ENMAX">    400.00000000</i>
   <i name="ENAUG">    544.56500000</i>
   <i name="EDIFF">      0.00010000</i>
   <i type="int" name="IALGO">    48</i>
   <i type="int" name="IWAVPR">    11</i>
   <i type="int" name="NBANDS">   416</i>
   <i name="NELECT">    654.00000000</i>
   <i type="int" name="TURBO">     0</i>
   <i type="int" name="IRESTART">     0</i>
   <i type="int" name="NREBOOT">     0</i>
   <i type="int" name="NMIN">     0</i>
   <i name="EREF">      0.00000000</i>
   <separator name="electronic smearing" >
    <i type="int" name="ISMEAR">     1</i>
    <i name="SIGMA">      0.20000000</i>
    <i name="KSPACING">      0.50000000</i>
    <i type="logical" name="KGAMMA"> T  </i>
   </separator>
   <separator name="electronic projectors" >
    <i type="logical" name="LREAL"> F  </i>
    <v name="ROPT">      0.00000000      0.00000000      0.00000000</v>
    <i type="int" name="LMAXPAW">  -100</i>
    <i type="int" name="LMAXMIX">     2</i>
    <i type="logical" name="NLSPLINE"> F  </i>
   </separator>
   <separator name="electronic startup" >
    <i type="int" name="ISTART">     0</i>
    <i type="int" name="ICHARG">     2</i>
    <i type="int" name="INIWAV">     1</i>
   </separator>
   <separator name="electronic spin" >
    <i type="int" name="ISPIN">     2</i>
    <i type="logical" name="LNONCOLLINEAR"> F  </i>
    <v name="MAGMOM">      0.00000000      0.00000000      1.00000000      1.00000000      1.00000000      1.00000000      1.00000000      1.00000000      1.00000000      1.00000000      1.00000000      1.00000000      1.00000000      1.00000000      1.00000000      1.00000000      1.00000000      1.00000000      1.00000000      1.00000000
      1.00000000      1.00000000      1.00000000      1.00000000      1.00000000      1.00000000      1.00000000      1.00000000      1.00000000      1.00000000      1.00000000      1.00000000      1.00000000      1.00000000      1.00000000      1.00000000      1.00000000      1.00000000      1.00000000      1.00000000
      1.00000000      1.00000000      1.00000000      1.00000000      1.00000000      1.00000000      1.00000000      1.00000000      1.00000000      1.00000000      0.00000000      0.00000000      0.00000000      0.00000000      0.00000000      0.00000000      0.00000000      0.00000000      0.00000000      0.00000000
      0.00000000      0.00000000      0.00000000      0.00000000</v>
    <i name="NUPDOWN">     -1.00000000</i>
    <i type="logical" name="LSORBIT"> F  </i>
    <v name="SAXIS">      0.00000000      0.00000000      1.00000000</v>
    <i type="logical" name="LSPIRAL"> F  </i>
    <v name="QSPIRAL">      0.00000000      0.00000000      0.00000000</v>
    <i type="logical" name="LZEROZ"> F  </i>
   </separator>
   <separator name="electronic exchange-correlation" >
    <i type="logical" name="LASPH"> F  </i>
    <i type="logical" name="LMETAGGA"> F  </i>
   </separator>
   <separator name="electronic convergence" >
    <i type="int" name="NELM">   100</i>
    <i type="int" name="NELMDL">   -12</i>
    <i type="int" name="NELMIN">     2</i>
    <i name="ENINI">    400.00000000</i>
    <separator name="electronic convergence detail" >
     <i type="logical" name="LDIAG"> T  </i>
     <i type="logical" name="LSUBROT"> F  </i>
     <i name="WEIMIN">      0.00100000</i>
     <i name="EBREAK">      0.00000006</i>
     <i name="DEPER">      0.30000000</i>
     <i type="int" name="NRMM">     4</i>
     <i name="TIME">      0.40000000</i>
    </separator>
   </separator>
   <separator name="electronic mixer" >
    <i name="AMIX">      0.40000000</i>
    <i name="BMIX">      1.00000000</i>
    <i name="AMIN">      0.10000000</i>
    <i name="AMIX_MAG">      1.60000000</i>
    <i name="BMIX_MAG">      1.00000000</i>
    <separator name="electronic mixer details" >
     <i type="int" name="IMIX">     4</i>
     <i type="logical" name="MIXFIRST"> F  </i>
     <i type="int" name="MAXMIX">   -45</i>
     <i name="WC">    100.00000000</i>
     <i type="int" name="INIMIX">     1</i>
     <i type="int" name="MIXPRE">     1</i>
     <i type="int" name="MREMOVE">     5</i>
    </separator>
   </separator>
   <separator name="electronic dipolcorrection" >
    <i type="logical" name="LDIPOL"> F  </i>
    <i type="logical" name="LMONO"> F  </i>
    <i type="int" name="IDIPOL">     0</i>
    <i name="EPSILON">      1.00000000</i>
    <v name="DIPOL">   -100.00000000   -100.00000000   -100.00000000</v>
    <i name="EFIELD">      0.00000000</i>
   </separator>
  </separator>
  <separator name="grids" >
   <i type="int" name="NGX">    28</i>
   <i type="int" name="NGY">    28</i>
   <i type="int" name="NGZ">   162</i>
   <i type="int" name="NGXF">    56</i>
   <i type="int" name="NGYF">    56</i>
   <i type="int" name="NGZF">   324</i>
   <i type="logical" name="ADDGRID"> F  </i>
  </separator>
  <separator name="ionic" >
   <i type="int" name="NSW">    63</i>
   <i type="int" name="IBRION">     2</i>
   <i type="int" name="ISIF">     3</i>
   <i name="PSTRESS">      0.00000000</i>
   <i name="EDIFFG">      0.00100000</i>
   <i type="int" name="NFREE">     1</i>
   <i name="POTIM">      0.50000000</i>
   <i name="SMASS">     -3.00000000</i>
   <i name="SCALEE">      1.00000000</i>
  </separator>
  <separator name="ionic md" >
   <i name="TEBEG">      0.00010000</i>
   <i name="TEEND">      0.00010000</i>
   <i type="int" name="NBLOCK">     1</i>
   <i type="int" name="KBLOCK">    63</i>
   <i type="int" name="NPACO">   256</i>
   <i name="APACO">     16.00000000</i>
  </separator>
  <separator name="symmetry" >
   <i type="int" name="ISYM">     2</i>
   <i name="SYMPREC">      0.00001000</i>
  </separator>
  <separator name="dos" >
   <i type="logical" name="LORBIT"> F  </i>
   <v name="RWIGS">     -1.00000000     -1.00000000     -1.00000000</v>
   <i type="int" name="NEDOS">   301</i>
   <i name="EMIN">     10.00000000</i>
   <i name="EMAX">    -10.00000000</i>
   <i name="EFERMI">      0.00000000</i>
  </separator>
  <separator name="writing" >
   <i type="int" name="NWRITE">     2</i>
   <i type="logical" name="LWAVE"> F  </i>
   <i type="logical" name="LCHARG"> F  </i>
   <i type="logical" name="LPARD"> F  </i>
   <i type="logical" name="LVTOT"> F  </i>
   <i type="logical" name="LVHAR"> F  </i>
   <i type="logical" name="LELF"> F  </i>
   <i type="logical" name="LOPTICS"> F  </i>
   <v name="STM">      0.00000000      0.00000000      0.00000000      0.00000000      0.00000000      0.00000000      0.00000000</v>
  </separator>
  <separator name="performance" >
   <i type="int" name="NPAR">     4</i>
   <i type="int" name="NSIM">     4</i>
   <i type="int" name="NBLK">    -1</i>
   <i type="logical" name="LPLANE"> T  </i>
   <i type="logical" name="LSCALAPACK"> T  </i>
   <i type="logical" name="LSCAAWARE"> F  </i>
   <i type="logical" name="LSCALU"> F  </i>
   <i type="logical" name="LASYNC"> F  </i>
   <i type="logical" name="LORBITALREAL"> F  </i>
  </separator>
  <separator name="miscellaneous" >
   <i type="int" name="IDIOT">     3</i>
   <i type="logical" name="LMUSIC"> F  </i>
   <v name="POMASS">     26.98100000     58.69000000     47.88000000</v>
   <v name="DARWINR">      0.00000000      0.00000000      0.00000000</v>
   <v name="DARWINV">      1.00000000      1.00000000      1.00000000</v>
   <i type="logical" name="LCORR"> T  </i>
  </separator>
  <i type="logical" name="GGA_COMPAT"> T  </i>
  <i type="logical" name="LBERRY"> F  </i>
  <i type="int" name="ICORELEVEL">     0</i>
  <i type="logical" name="LDAU"> F  </i>
  <i type="int" name="I_CONSTRAINED_M">     0</i>
  <separator name="electronic exchange-correlation" >
   <i type="string" name="GGA">--</i>
   <i type="int" name="VOSKOWN">     0</i>
   <i type="logical" name="LHFCALC"> F  </i>
   <i type="string" name="PRECFOCK"></i>
   <i type="logical" name="LSYMGRAD"> F  </i>
   <i type="logical" name="LHFONE"> F  </i>
   <i type="logical" name="LRHFCALC"> F  </i>
   <i type="logical" name="LTHOMAS"> F  </i>
   <i type="logical" name="LMODELHF"> F  </i>
   <i name="ENCUT4O">     -1.00000000</i>
   <i type="int" name="EXXOEP">     0</i>
   <i type="int" name="FOURORBIT">     0</i>
   <i name="AEXX">      0.00000000</i>
   <i name="HFALPHA">      0.00000000</i>
   <i name="MCALPHA">      0.00000000</i>
   <i name="ALDAX">      1.00000000</i>
   <i name="AGGAX">      1.00000000</i>
   <i name="ALDAC">      1.00000000</i>
   <i name="AGGAC">      1.00000000</i>
   <i type="int" name="NKREDX">     1</i>
   <i type="int" name="NKREDY">     1</i>
   <i type="int" name="NKREDZ">     1</i>
   <i type="logical" name="SHIFTRED"> F  </i>
   <i type="logical" name="ODDONLY"> F  </i>
   <i type="logical" name="EVENONLY"> F  </i>
   <i type="int" name="LMAXFOCK">     0</i>
   <i type="int" name="NMAXFOCKAE">     0</i>
   <i type="logical" name="LFOCKAEDFT"> F  </i>
   <i name="HFSCREEN">      0.00000000</i>
   <i name="HFSCREENC">      0.00000000</i>
   <i type="int" name="NBANDSGWLOW">     0</i>
  </separator>
  <separator name="vdW DFT" >
   <i type="logical" name="LUSE_VDW"> F  </i>
   <i name="Zab_VDW">     -0.84910000</i>
   <i name="PARAM1">      0.12340000</i>
   <i name="PARAM2">      1.00000000</i>
   <i name="PARAM3">      0.00000000</i>
  </separator>
  <separator name="model GW" >
   <i type="int" name="MODEL_GW">     0</i>
   <i name="MODEL_EPS0">      6.96382855</i>
   <i name="MODEL_ALPHA">      1.00000000</i>
  </separator>
  <separator name="linear response parameters" >
   <i type="logical" name="LEPSILON"> F  </i>
   <i type="logical" name="LRPA"> F  </i>
   <i type="logical" name="LNABLA"> F  </i>
   <i type="logical" name="LVEL"> F  </i>
   <i type="int" name="KINTER">     0</i>
   <i name="CSHIFT">      0.10000000</i>
   <i name="OMEGAMAX">     -1.00000000</i>
   <i name="DEG_THRESHOLD">      0.00200000</i>
  </separator>
  <separator name="orbital magnetization" >
   <i type="logical" name="NUCIND"> F  </i>
   <v name="MAGPOS">      0.00000000      0.00000000      0.00000000</v>
   <i type="logical" name="LNICSALL"> T  </i>
   <i type="logical" name="ORBITALMAG"> F  </i>
   <i type="logical" name="LMAGBLOCH"> F  </i>
   <i type="logical" name="LCHIMAG"> F  </i>
   <i type="logical" name="LGAUGE"> T  </i>
   <i type="int" name="MAGATOM">     0</i>
   <v name="MAGDIPOL">      0.00000000      0.00000000      0.00000000</v>
   <v name="AVECCONST">      0.00000000      0.00000000      0.00000000</v>
  </separator>
  <separator name="response functions" >
   <i type="logical" name="LADDER"> F  </i>
   <i type="logical" name="LFXC"> F  </i>
   <i type="logical" name="LHARTREE"> T  </i>
   <i type="int" name="IBSE">     0</i>
   <v type="int" name="KPOINT">    -1     0     0     0</v>
   <i type="logical" name="LTCTE"> F  </i>
   <i type="logical" name="LTETE"> F  </i>
   <i type="logical" name="LTRIPLET"> F  </i>
   <i type="logical" name="LFXCEPS"> F  </i>
   <i type="logical" name="LFXHEG"> F  </i>
   <i type="int" name="NATURALO">     0</i>
   <i type="logical" name="L2ORDER"> F  </i>
   <i type="logical" name="LUSEW"> F  </i>
   <i name="ENCUTGW">     -2.00000000</i>
   <i name="ENCUTGWSOFT">     -2.00000000</i>
   <i name="ENCUTLF">     -1.00000000</i>
   <i type="int" name="LMAXMP2">    -1</i>
   <i name="SCISSOR">      0.00000000</i>
   <i type="int" name="NOMEGA">     0</i>
   <i type="int" name="NOMEGAR">     0</i>
   <i type="int" name="NBANDSGW">    -1</i>
   <i type="int" name="NBANDSO">    -1</i>
   <i type="int" name="NBANDSV">    -1</i>
   <i type="int" name="NELM">   100</i>
   <i type="int" name="NELMHF">     1</i>
   <i type="int" name="DIM">     3</i>
   <i type="int" name="ANTIRES">     0</i>
   <i name="OMEGAMAX">    -30.00000000</i>
   <i name="OMEGAMIN">    -30.00000000</i>
   <i name="OMEGATL">   -200.00000000</i>
   <i type="int" name="OMEGAGRID">     0</i>
   <i name="CSHIFT">     -0.10000000</i>
   <i type="logical" name="SELFENERGY"> F  </i>
   <i type="logical" name="LSPECTRAL"> F  </i>
   <i type="logical" name="LSPECTRALGW"> F  </i>
   <i type="logical" name="LSINGLES"> F  </i>
   <i type="logical" name="LFERMIGW"> F  </i>
   <i type="logical" name="ODDONLYGW"> F  </i>
   <i type="logical" name="EVENONLYGW"> F  </i>
   <i type="int" name="NKREDLFX">     1</i>
   <i type="int" name="NKREDLFY">     1</i>
   <i type="int" name="NKREDLFZ">     1</i>
   <i type="int" name="MAXMEM">  1800</i>
   <i type="int" name="TELESCOPE">     0</i>
   <i type="int" name="TAUPAR">     1</i>
   <i type="int" name="OMEGAPAR">    -1</i>
   <i name="LAMBDA">      1.00000000</i>
  </separator>
  <separator name="External order field" >
   <i name="OFIELD_KAPPA">      0.00000000</i>
   <v name="OFIELD_K">      0.00000000      0.00000000      0.00000000</v>
   <i name="OFIELD_Q6_NEAR">      0.00000000</i>
   <i name="OFIELD_Q6_FAR">      0.00000000</i>
   <i name="OFIELD_A">      0.00000000</i>
  </separator>
 </parameters>
 <atominfo>
  <atoms>      64 </atoms>
  <types>       3 </types>
  <array name="atoms" >
   <dimension dim="1">ion</dimension>
   <field type="string">element</field>
   <field type="int">atomtype</field>
   <set>
    <rc><c>Al</c><c>   1</c></rc>
    <rc><c>Al</c><c>   1</c></rc>
    <rc><c>Ni</c><c>   2</c></rc>
    <rc><c>Ni</c><c>   2</c></rc>
    <rc><c>Ni</c><c>   2</c></rc>
    <rc><c>Ni</c><c>   2</c></rc>
    <rc><c>Ni</c><c>   2</c></rc>
    <rc><c>Ni</c><c>   2</c></rc>
    <rc><c>Ni</c><c>   2</c></rc>
    <rc><c>Ni</c><c>   2</c></rc>
    <rc><c>Ni</c><c>   2</c></rc>
    <rc><c>Ni</c><c>   2</c></rc>
    <rc><c>Ni</c><c>   2</c></rc>
    <rc><c>Ni</c><c>   2</c></rc>
    <rc><c>Ni</c><c>   2</c></rc>
    <rc><c>Ni</c><c>   2</c></rc>
    <rc><c>Ni</c><c>   2</c></rc>
    <rc><c>Ni</c><c>   2</c></rc>
    <rc><c>Ni</c><c>   2</c></rc>
    <rc><c>Ni</c><c>   2</c></rc>
    <rc><c>Ni</c><c>   2</c></rc>
    <rc><c>Ni</c><c>   2</c></rc>
    <rc><c>Ni</c><c>   2</c></rc>
    <rc><c>Ni</c><c>   2</c></rc>
    <rc><c>Ni</c><c>   2</c></rc>
    <rc><c>Ni</c><c>   2</c></rc>
    <rc><c>Ni</c><c>   2</c></rc>
    <rc><c>Ni</c><c>   2</c></rc>
    <rc><c>Ni</c><c>   2</c></rc>
    <rc><c>Ni</c><c>   2</c></rc>
    <rc><c>Ni</c><c>   2</c></rc>
    <rc><c>Ni</c><c>   2</c></rc>
    <rc><c>Ni</c><c>   2</c></rc>
    <rc><c>Ni</c><c>   2</c></rc>
    <rc><c>Ni</c><c>   2</c></rc>
    <rc><c>Ni</c><c>   2</c></rc>
    <rc><c>Ni</c><c>   2</c></rc>
    <rc><c>Ni</c><c>   2</c></rc>
    <rc><c>Ni</c><c>   2</c></rc>
    <rc><c>Ni</c><c>   2</c></rc>
    <rc><c>Ni</c><c>   2</c></rc>
    <rc><c>Ni</c><c>   2</c></rc>
    <rc><c>Ni</c><c>   2</c></rc>
    <rc><c>Ni</c><c>   2</c></rc>
    <rc><c>Ni</c><c>   2</c></rc>
    <rc><c>Ni</c><c>   2</c></rc>
    <rc><c>Ni</c><c>   2</c></rc>
    <rc><c>Ni</c><c>   2</c></rc>
    <rc><c>Ni</c><c>   2</c></rc>
    <rc><c>Ni</c><c>   2</c></rc>
    <rc><c>Ti</c><c>   3</c></rc>
    <rc><c>Ti</c><c>   3</c></rc>
    <rc><c>Ti</c><c>   3</c></rc>
    <rc><c>Ti</c><c>   3</c></rc>
    <rc><c>Ti</c><c>   3</c></rc>
    <rc><c>Ti</c><c>   3</c></rc>
    <rc><c>Ti</c><c>   3</c></rc>
    <rc><c>Ti</c><c>   3</c></rc>
    <rc><c>Ti</c><c>   3</c></rc>
    <rc><c>Ti</c><c>   3</c></rc>
    <rc><c>Ti</c><c>   3</c></rc>
    <rc><c>Ti</c><c>   3</c></rc>
    <rc><c>Ti</c><c>   3</c></rc>
    <rc><c>Ti</c><c>   3</c></rc>
   </set>
  </array>
  <array name="atomtypes" >
   <dimension dim="1">type</dimension>
   <field type="int">atomspertype</field>
   <field type="string">element</field>
   <field>mass</field>
   <field>valence</field>
   <field type="string">pseudopotential</field>
   <set>
    <rc><c>   2</c><c>Al</c><c>     26.98100000</c><c>      3.00000000</c><c>  PAW_PBE Al 04Jan2001                  </c></rc>
    <rc><c>  48</c><c>Ni</c><c>     58.69000000</c><c>     10.00000000</c><c>  PAW_PBE Ni 02Aug2007                  </c></rc>
    <rc><c>  14</c><c>Ti</c><c>     47.88000000</c><c>     12.00000000</c><c>  PAW_PBE Ti_sv 26Sep2005               </c></rc>
   </set>
  </array>
 </atominfo>
 <structure name="initialpos" >
  <crystal>
   <varray name="basis" >
    <v>       5.08440739       0.00000000       0.00000000 </v>
    <v>      -2.54220370       4.40322660       0.00000000 </v>
    <v>       0.00000000       0.00000000      33.17916232 </v>
   </varray>
   <i name="volume">    742.80837917 </i>
   <varray name="rec_basis" >
    <v>       0.19667975       0.11355309       0.00000000 </v>
    <v>       0.00000000       0.22710619       0.00000000 </v>
    <v>       0.00000000       0.00000000       0.03013940 </v>
   </varray>
  </crystal>
  <varray name="positions" >
   <v>       0.33333330       0.66666670       0.93771368 </v>
   <v>       0.33333330       0.66666670       0.12478632 </v>
   <v>       0.17168941       0.34337871       0.74947552 </v>
   <v>       0.49497729       0.98995459       0.31302448 </v>
   <v>       0.49485317       0.50514683       0.81257500 </v>
   <v>       0.49497729       0.50502271       0.31302448 </v>
   <v>       0.65662129       0.82831059       0.74947552 </v>
   <v>       0.65637304       0.82818647       0.24992500 </v>
   <v>       0.17168941       0.82831059       0.74947552 </v>
   <v>       0.17181353       0.82818647       0.24992500 </v>
   <v>       0.01004541       0.50502271       0.31302448 </v>
   <v>       0.17181353       0.34362696       0.24992500 </v>
   <v>       0.99789288       0.49894644       0.68709374 </v>
   <v>       0.99853326       0.49926663       0.18728553 </v>
   <v>       0.50105356       0.00210712       0.68709374 </v>
   <v>       0.50073337       0.00146674       0.18728553 </v>
   <v>       0.50105356       0.49894644       0.68709374 </v>
   <v>       0.50073337       0.49926663       0.18728553 </v>
   <v>       0.49485317       0.98970634       0.81257500 </v>
   <v>       0.83307828       0.66615666       0.12501903 </v>
   <v>       0.01029366       0.50514683       0.81257500 </v>
   <v>       0.16561314       0.33122618       0.37540626 </v>
   <v>       0.16593333       0.33186656       0.87521447 </v>
   <v>       0.16561314       0.83438686       0.37540626 </v>
   <v>       0.16593333       0.83406667       0.87521447 </v>
   <v>       0.66877382       0.83438686       0.37540626 </v>
   <v>       0.66813344       0.83406667       0.87521447 </v>
   <v>       0.33352300       0.16676155       0.43766505 </v>
   <v>       0.33282326       0.16641168       0.93748097 </v>
   <v>       0.83323845       0.16676155       0.43766505 </v>
   <v>       0.83358832       0.16641168       0.93748097 </v>
   <v>       0.83323845       0.66647700       0.43766505 </v>
   <v>       0.83358832       0.66717674       0.93748097 </v>
   <v>       0.83342815       0.66685640       0.62483495 </v>
   <v>       0.49992108       0.50007892       0.99975512 </v>
   <v>       0.49996764       0.50003236       0.50003433 </v>
   <v>       0.49992108       0.99984215       0.99975512 </v>
   <v>       0.49996764       0.99993528       0.50003433 </v>
   <v>       0.00015785       0.50007892       0.99975512 </v>
   <v>       0.00006472       0.50003236       0.50003433 </v>
   <v>       0.16674562       0.33349115       0.06274488 </v>
   <v>       0.16669906       0.33339802       0.56246567 </v>
   <v>       0.16674562       0.83325438       0.06274488 </v>
   <v>       0.16669906       0.83330094       0.56246567 </v>
   <v>       0.66650885       0.83325438       0.06274488 </v>
   <v>       0.66660198       0.83330094       0.56246567 </v>
   <v>       0.33384334       0.16692172       0.12501903 </v>
   <v>       0.33314360       0.16657185       0.62483495 </v>
   <v>       0.83307828       0.16692172       0.12501903 </v>
   <v>       0.83342815       0.16657185       0.62483495 </v>
   <v>       0.00000000       0.00000000       0.49986338 </v>
   <v>       0.66666670       0.33333330       0.06103915 </v>
   <v>       0.66666670       0.33333330       0.56263662 </v>
   <v>       0.33333330       0.66666670       0.62537071 </v>
   <v>       0.00000000       0.00000000       0.18808161 </v>
   <v>       0.00000000       0.00000000       0.68920993 </v>
   <v>       0.66666670       0.33333330       0.24972641 </v>
   <v>       0.66666670       0.33333330       0.75227037 </v>
   <v>       0.00000000       0.00000000       0.31022963 </v>
   <v>       0.00000000       0.00000000       0.81277359 </v>
   <v>       0.66666670       0.33333330       0.37329007 </v>
   <v>       0.66666670       0.33333330       0.87441839 </v>
   <v>       0.33333330       0.66666670       0.43712929 </v>
   <v>       0.00000000       0.00000000       0.00146085 </v>
  </varray>
 </structure>
 <calculation>
  <scstep>
   <time name="diag">   49.27   49.44</time>
   <time name="diis">  204.88  205.63</time>
   <time name="orth">   14.62   14.67</time>
   <time name="total">  268.95  269.91</time>
   <energy>
    <i name="alphaZ">   3174.56174505 </i>
    <i name="ewald"> -60360.87561417 </i>
    <i name="hartreedc"> -18765.80716661 </i>
    <i name="XCdc">   2352.25204112 </i>
    <i name="pawpsdc">  64052.30531756 </i>
    <i name="pawaedc"> -66922.40966197 </i>
    <i name="eentropy">      0.00399451 </i>
    <i name="bandstr">   4241.22103954 </i>
    <i name="atom">  74067.99487448 </i>
    <i name="e_fr_energy">   1839.24656950 </i>
    <i name="e_wo_entrp">   1839.24257499 </i>
    <i name="e_0_energy">   1839.24523800 </i>
   </energy>
  </scstep>
  <scstep>
   <time name="diag">   49.31   49.47</time>
   <time name="diis">  204.91  205.71</time>
   <time name="orth">   14.62   14.67</time>
   <time name="total">  268.91  269.93</time>
   <energy>
    <i name="e_fr_energy">      6.97377951 </i>
    <i name="e_wo_entrp">      6.97926553 </i>
    <i name="e_0_energy">      6.97560818 </i>
   </energy>
  </scstep>
  <scstep>
   <time name="diag">   49.44   49.62</time>
   <time name="diis">  204.80  205.64</time>
   <time name="orth">   14.65   14.72</time>
   <time name="total">  268.97  270.06</time>
   <energy>
    <i name="e_fr_energy">   -152.22927703 </i>
    <i name="e_wo_entrp">   -152.24266989 </i>
    <i name="e_0_energy">   -152.23374132 </i>
   </energy>
  </scstep>
  <scstep>
   <time name="diag">   49.96   50.14</time>
   <time name="diis">  204.84  205.65</time>
   <time name="orth">   14.63   14.67</time>
   <time name="total">  269.50  270.53</time>
   <energy>
    <i name="e_fr_energy">   -328.93899977 </i>
    <i name="e_wo_entrp">   -328.90582518 </i>
    <i name="e_0_energy">   -328.92794157 </i>
   </energy>
  </scstep>
  <scstep>
   <time name="diag">   49.99   50.20</time>
   <time name="diis">  204.98  205.75</time>
   <time name="orth">   14.66   14.70</time>
   <time name="total">  269.71  270.73</time>
   <energy>
    <i name="e_fr_energy">   -377.90487095 </i>
    <i name="e_wo_entrp">   -377.87135587 </i>
    <i name="e_0_energy">   -377.89369925 </i>
   </energy>
  </scstep>
  <scstep>
   <time name="diag">   49.65   49.84</time>
   <time name="diis">  204.83  205.62</time>
   <time name="orth">   14.63   14.67</time>
   <time name="total">  269.19  270.21</time>
   <energy>
    <i name="e_fr_energy">   -404.41045099 </i>
    <i name="e_wo_entrp">   -404.38669645 </i>
    <i name="e_0_energy">   -404.40253281 </i>
   </energy>
  </scstep>
  <scstep>
   <time name="diag">   49.64   49.86</time>
   <time name="diis">  204.75  205.61</time>
   <time name="orth">   14.64   14.68</time>
   <time name="total">  269.11  270.23</time>
   <energy>
    <i name="e_fr_energy">   -417.42921731 </i>
    <i name="e_wo_entrp">   -417.41677924 </i>
    <i name="e_0_energy">   -417.42507129 </i>
   </energy>
  </scstep>
  <scstep>
   <time name="diag">   49.51   49.69</time>
   <time name="diis">  204.88  205.68</time>
   <time name="orth">   14.63   14.67</time>
   <time name="total">  269.08  270.11</time>
   <energy>
    <i name="e_fr_energy">   -429.62560815 </i>
    <i name="e_wo_entrp">   -429.61703247 </i>
    <i name="e_0_energy">   -429.62274959 </i>
   </energy>
  </scstep>
  <scstep>
   <time name="diag">   49.69   49.76</time>
   <time name="diis">  634.62  635.76</time>
   <time name="orth">   14.67   14.68</time>
   <time name="total">  699.05  700.27</time>
   <energy>
    <i name="e_fr_energy">   -446.20188321 </i>
    <i name="e_wo_entrp">   -446.19463517 </i>
    <i name="e_0_energy">   -446.19946719 </i>
   </energy>
  </scstep>
  <scstep>
   <time name="diag">   50.07   50.18</time>
   <time name="diis">  714.75  715.81</time>
   <time name="orth">   14.65   14.66</time>
   <time name="total">  779.54  780.72</time>
   <energy>
    <i name="e_fr_energy">   -459.38981546 </i>
    <i name="e_wo_entrp">   -459.39230697 </i>
    <i name="e_0_energy">   -459.39064596 </i>
   </energy>
  </scstep>
  <scstep>
   <time name="diag">   49.77   49.93</time>
   <time name="diis">  716.63  717.89</time>
   <time name="orth">   14.65   14.66</time>
   <time name="total">  781.12  782.55</time>
   <energy>
    <i name="e_fr_energy">   -464.51068001 </i>
    <i name="e_wo_entrp">   -464.50869916 </i>
    <i name="e_0_energy">   -464.51001973 </i>
   </energy>
  </scstep>
  <scstep>
   <time name="diag">   49.74   49.82</time>
   <time name="diis">  717.22  718.31</time>
   <time name="orth">   14.64   14.65</time>
   <time name="total">  793.68  794.87</time>
   <energy>
    <i name="e_fr_energy">   -467.40779551 </i>
    <i name="e_wo_entrp">   -467.40570560 </i>
    <i name="e_0_energy">   -467.40709887 </i>
   </energy>
  </scstep>
  <scstep>
   <time name="diag">   49.37   49.46</time>
   <time name="diis">  417.32  417.76</time>
   <time name="orth">   14.65   14.68</time>
   <time name="total">  493.57  494.13</time>
   <energy>
    <i name="e_fr_energy">   -469.13041129 </i>
    <i name="e_wo_entrp">   -469.12785274 </i>
    <i name="e_0_energy">   -469.12955844 </i>
   </energy>
  </scstep>
  <scstep>
   <time name="diag">   49.46   49.52</time>
   <time name="diis">  445.95  446.53</time>
   <time name="orth">   14.67   14.68</time>
   <time name="total">  522.24  522.92</time>
   <energy>
    <i name="e_fr_energy">   -585.14900258 </i>
    <i name="e_wo_entrp">   -585.18507116 </i>
    <i name="e_0_energy">   -585.16102544 </i>
   </energy>
  </scstep>
  <scstep>
   <time name="diag">   49.40   49.49</time>
   <time name="diis">  637.33  639.23</time>
   <time name="orth">   14.67   14.69</time>
   <time name="total">  713.65  715.72</time>
   <energy>
    <i name="e_fr_energy">  -1017.54338868 </i>
    <i name="e_wo_entrp">  -1017.50387333 </i>
    <i name="e_0_energy">  -1017.53021690 </i>
   </energy>
  </scstep>
  <scstep>
   <time name="diag">   49.53   49.61</time>
   <time name="diis">  484.08  485.35</time>
   <time name="orth">   14.68   14.72</time>
   <time name="total">  560.44  561.85</time>
   <energy>
    <i name="e_fr_energy">   -608.96244434 </i>
    <i name="e_wo_entrp">   -608.97203314 </i>
    <i name="e_0_energy">   -608.96564061 </i>
   </energy>
  </scstep>
  <scstep>
   <time name="diag">   49.49   49.71</time>
   <time name="diis">  455.25  456.58</time>
   <time name="orth">   14.65   14.70</time>
   <time name="total">  531.59  533.22</time>
   <energy>
    <i name="e_fr_energy">   -433.11687911 </i>
    <i name="e_wo_entrp">   -433.05515958 </i>
    <i name="e_0_energy">   -433.09630593 </i>
   </energy>
  </scstep>
  <scstep>
   <time name="diag">   49.70   49.84</time>
   <time name="diis">  414.89  416.24</time>
   <time name="orth">   14.64   14.67</time>
   <time name="total">  491.41  492.94</time>
   <energy>
    <i name="e_fr_energy">   -449.86501069 </i>
    <i name="e_wo_entrp">   -449.84351386 </i>
    <i name="e_0_energy">   -449.85784508 </i>
   </energy>
  </scstep>
  <scstep>
   <time name="diag">   49.30   49.41</time>
   <time name="diis">  422.35  423.57</time>
   <time name="orth">   14.65   14.69</time>
   <time name="total">  498.52  499.92</time>
   <energy>
    <i name="e_fr_energy">   -432.97823727 </i>
    <i name="e_wo_entrp">   -433.01405959 </i>
    <i name="e_0_energy">   -432.99017804 </i>
   </energy>
  </scstep>
  <scstep>
   <time name="diag">   49.36   49.53</time>
   <time name="diis">  423.36  424.46</time>
   <time name="orth">   14.65   14.68</time>
   <time name="total">  499.55  500.91</time>
   <energy>
    <i name="e_fr_energy">   -413.24665409 </i>
    <i name="e_wo_entrp">   -413.30075207 </i>
    <i name="e_0_energy">   -413.26468675 </i>
   </energy>
  </scstep>
  <scstep>
   <time name="diag">   49.29   49.44</time>
   <time name="diis">  420.68  421.96</time>
   <time name="orth">   14.62   14.66</time>
   <time name="total">  496.73  498.22</time>
   <energy>
    <i name="e_fr_energy">   -407.07700977 </i>
    <i name="e_wo_entrp">   -407.14943480 </i>
    <i name="e_0_energy">   -407.10115145 </i>
   </energy>
  </scstep>
  <scstep>
   <time name="diag">   49.25   49.45</time>
   <time name="diis">  435.68  437.25</time>
   <time name="orth">   14.64   14.66</time>
   <time name="total">  511.82  513.68</time>
   <energy>
    <i name="e_fr_energy">   -405.19624228 </i>
    <i name="e_wo_entrp">   -405.26450427 </i>
    <i name="e_0_energy">   -405.21899628 </i>
   </energy>
  </scstep>
  <scstep>
   <time name="diag">   49.35   49.46</time>
   <time name="diis">  667.08  669.06</time>
   <time name="orth">   14.62   14.67</time>
   <time name="total">  743.28  745.45</time>
   <energy>
    <i name="e_fr_energy">   -405.17524092 </i>
    <i name="e_wo_entrp">   -405.24890778 </i>
    <i name="e_0_energy">   -405.19979654 </i>
   </energy>
  </scstep>
  <scstep>
   <time name="diag">   49.28   49.47</time>
   <time name="diis">  483.14  484.45</time>
   <time name="orth">   14.69   14.73</time>
   <time name="total">  559.36  560.92</time>
   <energy>
    <i name="e_fr_energy">   -405.13182522 </i>
    <i name="e_wo_entrp">   -405.18509318 </i>
    <i name="e_0_energy">   -405.14958121 </i>
   </energy>
  </scstep>
  <scstep>
   <time name="diag">   50.04   50.17</time>
   <time name="diis">  467.69  468.90</time>
   <time name="orth">   14.66   14.71</time>
   <time name="total">  544.62  546.04</time>
   <energy>
    <i name="e_fr_energy">   -404.54384628 </i>
    <i name="e_wo_entrp">   -404.68902744 </i>
    <i name="e_0_energy">   -404.59224000 </i>
   </energy>
  </scstep>
  <scstep>
   <time name="diag">   49.60   49.75</time>
   <time name="diis">  447.46  448.47</time>
   <time name="orth">   14.63   14.64</time>
   <time name="total">  523.87  525.13</time>
   <energy>
    <i name="e_fr_energy">   -404.59262626 </i>
    <i name="e_wo_entrp">   -404.75074089 </i>
    <i name="e_0_energy">   -404.64533113 </i>
   </energy>
  </scstep>
  <scstep>
   <time name="diag">   49.41   49.52</time>
   <time name="diis">  491.34  492.51</time>
   <time name="orth">   14.64   14.66</time>
   <time name="total">  567.63  568.96</time>
   <energy>
    <i name="e_fr_energy">   -407.86199959 </i>
    <i name="e_wo_entrp">   -407.85751841 </i>
    <i name="e_0_energy">   -407.86050586 </i>
   </energy>
  </scstep>
  <scstep>
   <time name="diag">   49.50   49.63</time>
   <time name="diis">  457.28  458.42</time>
   <time name="orth">   14.67   14.79</time>
   <time name="total">  533.68  535.10</time>
   <energy>
    <i name="e_fr_energy">   -413.60171672 </i>
    <i name="e_wo_entrp">   -413.64507508 </i>
    <i name="e_0_energy">   -413.61616951 </i>
   </energy>
  </scstep>
  <scstep>
   <time name="diag">   49.56   49.68</time>
   <time name="diis">  435.68  436.78</time>
   <time name="orth">   14.64   14.66</time>
   <time name="total">  512.11  513.37</time>
   <energy>
    <i name="e_fr_energy">   -408.66638051 </i>
    <i name="e_wo_entrp">   -408.63096266 </i>
    <i name="e_0_energy">   -408.65457456 </i>
   </energy>
  </scstep>
  <scstep>
   <time name="diag">   49.60   49.95</time>
   <time name="diis">  447.06  448.11</time>
   <time name="orth">   14.67   14.70</time>
   <time name="total">  523.54  525.02</time>
   <energy>
    <i name="e_fr_energy">   -409.66162697 </i>
    <i name="e_wo_entrp">   -409.67306467 </i>
    <i name="e_0_energy">   -409.66543954 </i>
   </energy>
  </scstep>
  <scstep>
   <time name="diag">   49.45   49.62</time>
   <time name="diis">  480.30  481.80</time>
   <time name="orth">   14.74   14.76</time>
   <time name="total">  556.70  558.43</time>
   <energy>
    <i name="e_fr_energy">   -409.85793946 </i>
    <i name="e_wo_entrp">   -409.83922392 </i>
    <i name="e_0_energy">   -409.85170094 </i>
   </energy>
  </scstep>
  <scstep>
   <time name="diag">   49.56   49.65</time>
   <time name="diis">  529.87  531.25</time>
   <time name="orth">   14.63   14.65</time>
   <time name="total">  606.29  607.81</time>
   <energy>
    <i name="e_fr_energy">   -409.90761902 </i>
    <i name="e_wo_entrp">   -410.01743055 </i>
    <i name="e_0_energy">   -409.94422286 </i>
   </energy>
  </scstep>
  <scstep>
   <time name="diag">   49.39   49.50</time>
   <time name="diis">  497.21  498.45</time>
   <time name="orth">   14.64   14.70</time>
   <time name="total">  573.40  574.82</time>
   <energy>
    <i name="e_fr_energy">   -409.96621092 </i>
    <i name="e_wo_entrp">   -410.07868143 </i>
    <i name="e_0_energy">   -410.00370109 </i>
   </energy>
  </scstep>
  <scstep>
   <time name="diag">   49.76   49.90</time>
   <time name="diis">  454.63  456.09</time>
   <time name="orth">   14.67   14.69</time>
   <time name="total">  531.16  532.83</time>
   <energy>
    <i name="e_fr_energy">   -410.73998375 </i>
    <i name="e_wo_entrp">   -410.86636661 </i>
    <i name="e_0_energy">   -410.78211137 </i>
   </energy>
  </scstep>
  <scstep>
   <time name="diag">   49.33   49.44</time>
   <time name="diis">  456.23  457.42</time>
   <time name="orth">   14.63   14.65</time>
   <time name="total">  532.32  533.66</time>
   <energy>
    <i name="e_fr_energy">   -410.86140752 </i>
    <i name="e_wo_entrp">   -410.99409758 </i>
    <i name="e_0_energy">   -410.90563754 </i>
   </energy>
  </scstep>
  <scstep>
   <time name="diag">   49.41   49.55</time>
   <time name="diis">  461.30  462.69</time>
   <time name="orth">   14.63   14.66</time>
   <time name="total">  537.48  539.04</time>
   <energy>
    <i name="e_fr_energy">   -410.94364459 </i>
    <i name="e_wo_entrp">   -411.05001115 </i>
    <i name="e_0_energy">   -410.97910011 </i>
   </energy>
  </scstep>
  <scstep>
   <time name="diag">   49.59   49.77</time>
   <time name="diis">  481.64  483.13</time>
   <time name="orth">   14.71   14.74</time>
   <time name="total">  558.05  559.76</time>
   <energy>
    <i name="e_fr_energy">   -410.74071018 </i>
    <i name="e_wo_entrp">   -410.85467906 </i>
    <i name="e_0_energy">   -410.77869980 </i>
   </energy>
  </scstep>
  <scstep>
   <time name="diag">   49.75   49.89</time>
   <time name="diis">  524.06  525.52</time>
   <time name="orth">   14.68   14.74</time>
   <time name="total">  600.74  602.42</time>
   <energy>
    <i name="e_fr_energy">   -410.62562597 </i>
    <i name="e_wo_entrp">   -410.76126109 </i>
    <i name="e_0_energy">   -410.67083767 </i>
   </energy>
  </scstep>
  <scstep>
   <time name="diag">   49.79   49.92</time>
   <time name="diis">  539.20  540.56</time>
   <time name="orth">   14.66   14.68</time>
   <time name="total">  615.90  617.44</time>
   <energy>
    <i name="e_fr_energy">   -410.52143718 </i>
    <i name="e_wo_entrp">   -410.66622943 </i>
    <i name="e_0_energy">   -410.56970126 </i>
   </energy>
  </scstep>
  <scstep>
   <time name="diag">   49.74   49.85</time>
   <time name="diis">  554.63  555.88</time>
   <time name="orth">   14.73   14.75</time>
   <time name="total">  631.35  632.75</time>
   <energy>
    <i name="e_fr_energy">   -410.44242899 </i>
    <i name="e_wo_entrp">   -410.58914620 </i>
    <i name="e_0_energy">   -410.49133473 </i>
   </energy>
  </scstep>
  <scstep>
   <time name="diag">   49.80   49.88</time>
   <time name="diis">  548.84  550.41</time>
   <time name="orth">   14.66   14.68</time>
   <time name="total">  625.49  627.24</time>
   <energy>
    <i name="e_fr_energy">   -410.36675199 </i>
    <i name="e_wo_entrp">   -410.50734139 </i>
    <i name="e_0_energy">   -410.41361513 </i>
   </energy>
  </scstep>
  <scstep>
   <time name="diag">   49.72   49.81</time>
   <time name="diis">  561.54  563.09</time>
   <time name="orth">   14.71   14.74</time>
   <time name="total">  638.21  639.90</time>
   <energy>
    <i name="e_fr_energy">   -410.33512104 </i>
    <i name="e_wo_entrp">   -410.46904652 </i>
    <i name="e_0_energy">   -410.37976286 </i>
   </energy>
  </scstep>
  <scstep>
   <time name="diag">   49.66   49.76</time>
   <time name="diis">  540.24  541.43</time>
   <time name="orth">   14.94   15.06</time>
   <time name="total">  616.96  618.39</time>
   <energy>
    <i name="e_fr_energy">   -410.31247944 </i>
    <i name="e_wo_entrp">   -410.43847349 </i>
    <i name="e_0_energy">   -410.35447745 </i>
   </energy>
  </scstep>
  <scstep>
   <time name="diag">   49.59   49.69</time>
   <time name="diis">  525.07  526.45</time>
   <time name="orth">   14.72   14.74</time>
   <time name="total">  601.52  603.05</time>
   <energy>
    <i name="e_fr_energy">   -410.30065650 </i>
    <i name="e_wo_entrp">   -410.42183145 </i>
    <i name="e_0_energy">   -410.34104815 </i>
   </energy>
  </scstep>
  <scstep>
   <time name="diag">   49.58   49.66</time>
   <time name="diis">  507.30  508.55</time>
   <time name="orth">   14.74   14.77</time>
   <time name="total">  583.71  585.10</time>
   <energy>
    <i name="e_fr_energy">   -410.28929159 </i>
    <i name="e_wo_entrp">   -410.40539661 </i>
    <i name="e_0_energy">   -410.32799326 </i>
   </energy>
  </scstep>
  <scstep>
   <time name="diag">   49.68   49.80</time>
   <time name="diis">  518.50  519.80</time>
   <time name="orth">   14.71   14.75</time>
   <time name="total">  595.06  596.55</time>
   <energy>
    <i name="e_fr_energy">   -410.28359798 </i>
    <i name="e_wo_entrp">   -410.39762970 </i>
    <i name="e_0_energy">   -410.32160855 </i>
   </energy>
  </scstep>
  <scstep>
   <time name="diag">   49.57   49.68</time>
   <time name="diis">  505.60  506.95</time>
   <time name="orth">   14.68   14.80</time>
   <time name="total">  581.96  583.55</time>
   <energy>
    <i name="e_fr_energy">   -410.27813838 </i>
    <i name="e_wo_entrp">   -410.38970882 </i>
    <i name="e_0_energy">   -410.31532853 </i>
   </energy>
  </scstep>
  <scstep>
   <time name="diag">   49.49   49.58</time>
   <time name="diis">  496.71  497.91</time>
   <time name="orth">   14.72   14.74</time>
   <time name="total">  573.12  574.54</time>
   <energy>
    <i name="e_fr_energy">   -410.27580430 </i>
    <i name="e_wo_entrp">   -410.38616930 </i>
    <i name="e_0_energy">   -410.31259263 </i>
   </energy>
  </scstep>
  <scstep>
   <time name="diag">   49.42   49.49</time>
   <time name="diis">  423.25  424.34</time>
   <time name="orth">   14.73   14.77</time>
   <time name="total">  487.56  488.77</time>
   <energy>
    <i name="alphaZ">   3174.56174505 </i>
    <i name="ewald"> -60360.87561417 </i>
    <i name="hartreedc"> -17460.84558250 </i>
    <i name="XCdc">   2281.81085122 </i>
    <i name="pawpsdc">  77618.57849132 </i>
    <i name="pawaedc"> -80462.66734077 </i>
    <i name="eentropy">      0.11053168 </i>
    <i name="bandstr">    731.05621968 </i>
    <i name="atom">  74067.99487448 </i>
    <i name="e_fr_energy">   -410.27582402 </i>
    <i name="e_wo_entrp">   -410.38635570 </i>
    <i name="e_0_energy">   -410.31266791 </i>
   </energy>
  </scstep>
  <structure>
   <crystal>
    <varray name="basis" >
     <v>       5.08440739       0.00000000       0.00000000 </v>
     <v>      -2.54220370       4.40322660       0.00000000 </v>
     <v>       0.00000000       0.00000000      33.17916232 </v>
    </varray>
    <i name="volume">    742.80837917 </i>
    <varray name="rec_basis" >
     <v>       0.19667975       0.11355309       0.00000000 </v>
     <v>       0.00000000       0.22710619       0.00000000 </v>
     <v>       0.00000000       0.00000000       0.03013940 </v>
    </varray>
   </crystal>
   <varray name="positions" >
    <v>       0.33333330       0.66666670       0.93771368 </v>
    <v>       0.33333330       0.66666670       0.12478632 </v>
    <v>       0.17168941       0.34337871       0.74947552 </v>
    <v>       0.49497729       0.98995459       0.31302448 </v>
    <v>       0.49485317       0.50514683       0.81257500 </v>
    <v>       0.49497729       0.50502271       0.31302448 </v>
    <v>       0.65662129       0.82831059       0.74947552 </v>
    <v>       0.65637304       0.82818647       0.24992500 </v>
    <v>       0.17168941       0.82831059       0.74947552 </v>
    <v>       0.17181353       0.82818647       0.24992500 </v>
    <v>       0.01004541       0.50502271       0.31302448 </v>
    <v>       0.17181353       0.34362696       0.24992500 </v>
    <v>       0.99789288       0.49894644       0.68709374 </v>
    <v>       0.99853326       0.49926663       0.18728553 </v>
    <v>       0.50105356       0.00210712       0.68709374 </v>
    <v>       0.50073337       0.00146674       0.18728553 </v>
    <v>       0.50105356       0.49894644       0.68709374 </v>
    <v>       0.50073337       0.49926663       0.18728553 </v>
    <v>       0.49485317       0.98970634       0.81257500 </v>
    <v>       0.83307828       0.66615666       0.12501903 </v>
    <v>       0.01029366       0.50514683       0.81257500 </v>
    <v>       0.16561314       0.33122618       0.37540626 </v>
    <v>       0.16593333       0.33186656       0.87521447 </v>
    <v>       0.16561314       0.83438686       0.37540626 </v>
    <v>       0.16593333       0.83406667       0.87521447 </v>
    <v>       0.66877382       0.83438686       0.37540626 </v>
    <v>       0.66813344       0.83406667       0.87521447 </v>
    <v>       0.33352300       0.16676155       0.43766505 </v>
    <v>       0.33282326       0.16641168       0.93748097 </v>
    <v>       0.83323845       0.16676155       0.43766505 </v>
    <v>       0.83358832       0.16641168       0.93748097 </v>
    <v>       0.83323845       0.66647700       0.43766505 </v>
    <v>       0.83358832       0.66717674       0.93748097 </v>
    <v>       0.83342815       0.66685640       0.62483495 </v>
    <v>       0.49992108       0.50007892       0.99975512 </v>
    <v>       0.49996764       0.50003236       0.50003433 </v>
    <v>       0.49992108       0.99984215       0.99975512 </v>
    <v>       0.49996764       0.99993528       0.50003433 </v>
    <v>       0.00015785       0.50007892       0.99975512 </v>
    <v>       0.00006472       0.50003236       0.50003433 </v>
    <v>       0.16674562       0.33349115       0.06274488 </v>
    <v>       0.16669906       0.33339802       0.56246567 </v>
    <v>       0.16674562       0.83325438       0.06274488 </v>
    <v>       0.16669906       0.83330094       0.56246567 </v>
    <v>       0.66650885       0.83325438       0.06274488 </v>
    <v>       0.66660198       0.83330094       0.56246567 </v>
    <v>       0.33384334       0.16692172       0.12501903 </v>
    <v>       0.33314360       0.16657185       0.62483495 </v>
    <v>       0.83307828       0.16692172       0.12501903 </v>
    <v>       0.83342815       0.16657185       0.62483495 </v>
    <v>       0.00000000       0.00000000       0.49986338 </v>
    <v>       0.66666670       0.33333330       0.06103915 </v>
    <v>       0.66666670       0.33333330       0.56263662 </v>
    <v>       0.33333330       0.66666670       0.62537071 </v>
    <v>       0.00000000       0.00000000       0.18808161 </v>
    <v>       0.00000000       0.00000000       0.68920993 </v>
    <v>       0.66666670       0.33333330       0.24972641 </v>
    <v>       0.66666670       0.33333330       0.75227037 </v>
    <v>       0.00000000       0.00000000       0.31022963 </v>
    <v>       0.00000000       0.00000000       0.81277359 </v>
    <v>       0.66666670       0.33333330       0.37329007 </v>
    <v>       0.66666670       0.33333330       0.87441839 </v>
    <v>       0.33333330       0.66666670       0.43712929 </v>
    <v>       0.00000000       0.00000000       0.00146085 </v>
   </varray>
  </structure>
  <varray name="forces" >
   <v>       0.00000000      -0.00000000      -0.01679864 </v>
   <v>       0.00000000      -0.00000000       0.01679864 </v>
   <v>       0.00000000       0.03705704       0.01088289 </v>
   <v>      -0.00000000      -0.03705704      -0.01088289 </v>
   <v>      -0.02977534       0.01719081       0.02053291 </v>
   <v>      -0.03209233       0.01852852      -0.01088289 </v>
   <v>      -0.03209233      -0.01852852       0.01088289 </v>
   <v>      -0.02977534      -0.01719081      -0.02053291 </v>
   <v>       0.03209233      -0.01852852       0.01088289 </v>
   <v>       0.02977534      -0.01719081      -0.02053291 </v>
   <v>       0.03209233       0.01852852      -0.01088289 </v>
   <v>       0.00000000       0.03438161      -0.02053291 </v>
   <v>       0.00180583       0.00104260       0.01511310 </v>
   <v>      -0.00830369      -0.00479414      -0.01501002 </v>
   <v>       0.00000000      -0.00208520       0.01511310 </v>
   <v>       0.00000000       0.00958827      -0.01501002 </v>
   <v>      -0.00180583       0.00104260       0.01511310 </v>
   <v>       0.00830369      -0.00479414      -0.01501002 </v>
   <v>      -0.00000000      -0.03438161       0.02053291 </v>
   <v>       0.00000000      -0.00615573      -0.01257022 </v>
   <v>       0.02977534       0.01719081       0.02053291 </v>
   <v>       0.00000000       0.00208520      -0.01511310 </v>
   <v>       0.00000000      -0.00958827       0.01501002 </v>
   <v>       0.00180583      -0.00104260      -0.01511310 </v>
   <v>      -0.00830369       0.00479414       0.01501002 </v>
   <v>      -0.00180583      -0.00104260      -0.01511310 </v>
   <v>       0.00830369       0.00479414       0.01501002 </v>
   <v>      -0.00204243      -0.00117920      -0.00520502 </v>
   <v>      -0.00533102      -0.00307787       0.01257022 </v>
   <v>       0.00204243      -0.00117920      -0.00520502 </v>
   <v>       0.00533102      -0.00307787       0.01257022 </v>
   <v>       0.00000000       0.00235840      -0.00520502 </v>
   <v>       0.00000000       0.00615573       0.01257022 </v>
   <v>       0.00000000      -0.00235840       0.00520502 </v>
   <v>      -0.00684235       0.00395044      -0.01948645 </v>
   <v>       0.00236158      -0.00136346       0.00144513 </v>
   <v>       0.00000000      -0.00790087      -0.01948645 </v>
   <v>       0.00000000       0.00272692       0.00144513 </v>
   <v>       0.00684235       0.00395044      -0.01948645 </v>
   <v>      -0.00236158      -0.00136346       0.00144513 </v>
   <v>       0.00000000       0.00790087       0.01948645 </v>
   <v>       0.00000000      -0.00272692      -0.00144513 </v>
   <v>       0.00684235      -0.00395044       0.01948645 </v>
   <v>      -0.00236158       0.00136346      -0.00144513 </v>
   <v>      -0.00684235      -0.00395044       0.01948645 </v>
   <v>       0.00236158       0.00136346      -0.00144513 </v>
   <v>       0.00533102       0.00307787      -0.01257022 </v>
   <v>       0.00204243       0.00117920       0.00520502 </v>
   <v>      -0.00533102       0.00307787      -0.01257022 </v>
   <v>      -0.00204243       0.00117920       0.00520502 </v>
   <v>       0.00000000      -0.00000000      -0.02581891 </v>
   <v>       0.00000000      -0.00000000      -0.04215007 </v>
   <v>       0.00000000      -0.00000000       0.02581891 </v>
   <v>       0.00000000      -0.00000000       0.02012611 </v>
   <v>       0.00000000      -0.00000000      -0.03501202 </v>
   <v>       0.00000000      -0.00000000      -0.01213870 </v>
   <v>       0.00000000      -0.00000000       0.00302670 </v>
   <v>       0.00000000      -0.00000000       0.04246738 </v>
   <v>       0.00000000      -0.00000000      -0.04246738 </v>
   <v>       0.00000000      -0.00000000      -0.00302670 </v>
   <v>       0.00000000      -0.00000000       0.01213870 </v>
   <v>       0.00000000      -0.00000000       0.03501202 </v>
   <v>       0.00000000      -0.00000000      -0.02012611 </v>
   <v>       0.00000000      -0.00000000       0.04215007 </v>
  </varray>
  <varray name="stress" >
   <v>       7.47091518       0.00000000       0.00000000 </v>
   <v>       0.00000000       7.47091733       0.00000000 </v>
   <v>       0.00000000       0.00000000       7.99772570 </v>
  </varray>
  <energy>
   <i name="e_fr_energy">   -410.27582402 </i>
   <i name="e_wo_entrp">   -410.31266791 </i>
   <i name="e_0_energy">      0.11053168 </i>
  </energy>
  <time name="totalsc">27496.7427568.09</time>
 </calculation>
 <calculation>
  <scstep>
   <time name="diag">   50.09   50.20</time>
   <time name="diis">  427.65  428.61</time>
   <time name="orth">   14.65   14.67</time>
   <time name="total">  504.68  505.81</time>
   <energy>
    <i name="alphaZ">   3149.24728495 </i>
    <i name="ewald"> -60210.31628984 </i>
    <i name="hartreedc"> -17404.29034110 </i>
    <i name="XCdc">   2273.65955253 </i>
    <i name="pawpsdc">  77619.87712636 </i>
    <i name="pawaedc"> -80463.94992723 </i>
    <i name="eentropy">      0.11562081 </i>
    <i name="bandstr">    556.44880204 </i>
    <i name="atom">  74067.99487448 </i>
    <i name="e_fr_energy">   -411.21329699 </i>
    <i name="e_wo_entrp">   -411.32891781 </i>
    <i name="e_0_energy">   -411.25183726 </i>
   </energy>
  </scstep>
  <scstep>
   <time name="diag">   50.45   50.59</time>
   <time name="diis">  419.20  420.13</time>
   <time name="orth">   14.67   14.69</time>
   <time name="total">  496.72  497.82</time>
   <energy>
    <i name="e_fr_energy">   -415.16261689 </i>
    <i name="e_wo_entrp">   -415.17254516 </i>
    <i name="e_0_energy">   -415.16592631 </i>
   </energy>
  </scstep>
  <scstep>
   <time name="diag">   49.59   49.70</time>
   <time name="diis">  437.60  438.91</time>
   <time name="orth">   15.21   15.23</time>
   <time name="total">  514.72  516.20</time>
   <energy>
    <i name="e_fr_energy">   -436.83029552 </i>
    <i name="e_wo_entrp">   -436.79336094 </i>
    <i name="e_0_energy">   -436.81798400 </i>
   </energy>
  </scstep>
  <scstep>
   <time name="diag">   54.26   55.22</time>
   <time name="diis">  448.38  451.52</time>
   <time name="orth">   14.68   14.74</time>
   <time name="total">  529.51  533.71</time>
   <energy>
    <i name="e_fr_energy">   -411.40366932 </i>
    <i name="e_wo_entrp">   -411.53699661 </i>
    <i name="e_0_energy">   -411.44811175 </i>
   </energy>
  </scstep>
  <scstep>
   <time name="diag">   49.53   49.79</time>
   <time name="diis">  427.05  429.33</time>
   <time name="orth">   15.01   15.30</time>
   <time name="total">  503.80  506.67</time>
   <energy>
    <i name="e_fr_energy">   -410.84787096 </i>
    <i name="e_wo_entrp">   -410.94479151 </i>
    <i name="e_0_energy">   -410.88017781 </i>
   </energy>
  </scstep>
  <scstep>
   <time name="diag">   49.75   50.20</time>
   <time name="diis">  423.10  425.90</time>
   <time name="orth">   15.04   15.22</time>
   <time name="total">  500.08  503.55</time>
   <energy>
    <i name="e_fr_energy">   -410.36981892 </i>
    <i name="e_wo_entrp">   -410.48446561 </i>
    <i name="e_0_energy">   -410.40803449 </i>
   </energy>
  </scstep>
  <scstep>
   <time name="diag">   50.00   50.38</time>
   <time name="diis">  442.30  444.72</time>
   <time name="orth">   14.61   14.64</time>
   <time name="total">  519.00  521.86</time>
   <energy>
    <i name="e_fr_energy">   -410.32774109 </i>
    <i name="e_wo_entrp">   -410.43979120 </i>
    <i name="e_0_energy">   -410.36509113 </i>
   </energy>
  </scstep>
  <scstep>
   <time name="diag">   50.11   50.39</time>
   <time name="diis">  443.16  445.90</time>
   <time name="orth">   15.06   15.19</time>
   <time name="total">  520.50  523.69</time>
   <energy>
    <i name="e_fr_energy">   -410.30049837 </i>
    <i name="e_wo_entrp">   -410.41224224 </i>
    <i name="e_0_energy">   -410.33774633 </i>
   </energy>
  </scstep>
  <scstep>
   <time name="diag">   50.07   50.44</time>
   <time name="diis">  455.01  457.21</time>
   <time name="orth">   14.61   14.67</time>
   <time name="total">  531.94  534.66</time>
   <energy>
    <i name="e_fr_energy">   -410.28455463 </i>
    <i name="e_wo_entrp">   -410.39747158 </i>
    <i name="e_0_energy">   -410.32219361 </i>
   </energy>
  </scstep>
  <scstep>
   <time name="diag">   49.37   49.42</time>
   <time name="diis">  447.28  448.29</time>
   <time name="orth">   14.71   14.74</time>
   <time name="total">  523.47  524.57</time>
   <energy>
    <i name="e_fr_energy">   -410.28648701 </i>
    <i name="e_wo_entrp">   -410.39804542 </i>
    <i name="e_0_energy">   -410.32367315 </i>
   </energy>
  </scstep>
  <scstep>
   <time name="diag">   50.01   50.25</time>
   <time name="diis">  443.95  446.38</time>
   <time name="orth">   14.65   14.65</time>
   <time name="total">  521.12  523.84</time>
   <energy>
    <i name="e_fr_energy">   -410.28449697 </i>
    <i name="e_wo_entrp">   -410.39847251 </i>
    <i name="e_0_energy">   -410.32248882 </i>
   </energy>
  </scstep>
  <scstep>
   <time name="diag">   49.31   49.37</time>
   <time name="diis">  449.92  451.05</time>
   <time name="orth">   14.94   15.02</time>
   <time name="total">  526.30  527.57</time>
   <energy>
    <i name="e_fr_energy">   -410.28368688 </i>
    <i name="e_wo_entrp">   -410.39663728 </i>
    <i name="e_0_energy">   -410.32133701 </i>
   </energy>
  </scstep>
  <scstep>
   <time name="diag">   50.07   50.16</time>
   <time name="diis">  435.65  436.64</time>
   <time name="orth">   14.65   14.68</time>
   <time name="total">  512.52  513.62</time>
   <energy>
    <i name="e_fr_energy">   -410.28328367 </i>
    <i name="e_wo_entrp">   -410.39638073 </i>
    <i name="e_0_energy">   -410.32098269 </i>
   </energy>
  </scstep>
  <scstep>
   <time name="diag">   50.00   50.13</time>
   <time name="diis">  414.22  414.88</time>
   <time name="orth">   14.67   14.67</time>
   <time name="total">  491.00  491.86</time>
   <energy>
    <i name="e_fr_energy">   -410.28253508 </i>
    <i name="e_wo_entrp">   -410.39577163 </i>
    <i name="e_0_energy">   -410.32028060 </i>
   </energy>
  </scstep>
  <scstep>
   <time name="diag">   50.23   50.27</time>
   <time name="diis">  449.27  449.89</time>
   <time name="orth">   14.74   14.76</time>
   <time name="total">  526.38  527.06</time>
   <energy>
    <i name="e_fr_energy">   -410.28128114 </i>
    <i name="e_wo_entrp">   -410.39420638 </i>
    <i name="e_0_energy">   -410.31892289 </i>
   </energy>
  </scstep>
  <scstep>
   <time name="diag">   49.95   50.01</time>
   <time name="diis">  326.31  326.81</time>
   <time name="orth">   14.64   14.65</time>
   <time name="total">  403.58  404.15</time>
   <energy>
    <i name="e_fr_energy">   -410.28103844 </i>
    <i name="e_wo_entrp">   -410.39421347 </i>
    <i name="e_0_energy">   -410.31876345 </i>
   </energy>
  </scstep>
  <scstep>
   <time name="diag">   49.60   49.76</time>
   <time name="diis">  254.68  255.03</time>
   <time name="orth">   15.20   15.22</time>
   <time name="total">  319.64  320.17</time>
   <energy>
    <i name="alphaZ">   3149.24728495 </i>
    <i name="ewald"> -60210.31628984 </i>
    <i name="hartreedc"> -17523.34716190 </i>
    <i name="XCdc">   2280.16762643 </i>
    <i name="pawpsdc">  77263.34900500 </i>
    <i name="pawaedc"> -80107.73093346 </i>
    <i name="eentropy">      0.11321785 </i>
    <i name="bandstr">    670.24137461 </i>
    <i name="atom">  74067.99487448 </i>
    <i name="e_fr_energy">   -410.28100189 </i>
    <i name="e_wo_entrp">   -410.39421974 </i>
    <i name="e_0_energy">   -410.31874117 </i>
   </energy>
  </scstep>
  <structure>
   <crystal>
    <varray name="basis" >
     <v>       5.09768230       0.00000000       0.00000000 </v>
     <v>      -2.54884115       4.41472301       0.00000000 </v>
     <v>       0.00000000       0.00000000      33.27189853 </v>
    </varray>
    <i name="volume">    748.77926408 </i>
    <varray name="rec_basis" >
     <v>       0.19616758       0.11325739      -0.00000000 </v>
     <v>      -0.00000000       0.22651478      -0.00000000 </v>
     <v>      -0.00000000      -0.00000000       0.03005539 </v>
    </varray>
   </crystal>
   <varray name="positions" >
    <v>       0.33333330       0.66666670       0.93768926 </v>
    <v>       0.33333330       0.66666670       0.12481074 </v>
    <v>       0.17189241       0.34378472       0.74949134 </v>
    <v>       0.49477429       0.98954858       0.31300866 </v>
    <v>       0.49466482       0.50533518       0.81260486 </v>
    <v>       0.49477429       0.50522571       0.31300866 </v>
    <v>       0.65621528       0.82810759       0.74949134 </v>
    <v>       0.65599635       0.82799812       0.24989514 </v>
    <v>       0.17189241       0.82810759       0.74949134 </v>
    <v>       0.17200188       0.82799812       0.24989514 </v>
    <v>       0.01045142       0.50522571       0.31300866 </v>
    <v>       0.17200188       0.34400365       0.24989514 </v>
    <v>       0.99791572       0.49895786       0.68711571 </v>
    <v>       0.99842820       0.49921410       0.18726371 </v>
    <v>       0.50104214       0.00208428       0.68711571 </v>
    <v>       0.50078590       0.00157180       0.18726371 </v>
    <v>       0.50104214       0.49895786       0.68711571 </v>
    <v>       0.50078590       0.49921410       0.18726371 </v>
    <v>       0.49466482       0.98932965       0.81260486 </v>
    <v>       0.83304456       0.66608921       0.12500075 </v>
    <v>       0.01067035       0.50533518       0.81260486 </v>
    <v>       0.16562456       0.33124902       0.37538429 </v>
    <v>       0.16588080       0.33176150       0.87523629 </v>
    <v>       0.16562456       0.83437544       0.37538429 </v>
    <v>       0.16588080       0.83411920       0.87523629 </v>
    <v>       0.66875098       0.83437544       0.37538429 </v>
    <v>       0.66823850       0.83411920       0.87523629 </v>
    <v>       0.33349716       0.16674863       0.43765748 </v>
    <v>       0.33275581       0.16637796       0.93749925 </v>
    <v>       0.83325137       0.16674863       0.43765748 </v>
    <v>       0.83362204       0.16637796       0.93749925 </v>
    <v>       0.83325137       0.66650284       0.43765748 </v>
    <v>       0.83362204       0.66724419       0.93749925 </v>
    <v>       0.83341523       0.66683056       0.62484252 </v>
    <v>       0.49987780       0.50012220       0.99972679 </v>
    <v>       0.49998258       0.50001742       0.50003644 </v>
    <v>       0.49987780       0.99975559       0.99972679 </v>
    <v>       0.49998258       0.99996516       0.50003644 </v>
    <v>       0.00024441       0.50012220       0.99972679 </v>
    <v>       0.00003484       0.50001742       0.50003644 </v>
    <v>       0.16678890       0.33357771       0.06277321 </v>
    <v>       0.16668412       0.33336814       0.56246356 </v>
    <v>       0.16678890       0.83321110       0.06277321 </v>
    <v>       0.16668412       0.83331588       0.56246356 </v>
    <v>       0.66642229       0.83321110       0.06277321 </v>
    <v>       0.66663186       0.83331588       0.56246356 </v>
    <v>       0.33391079       0.16695544       0.12500075 </v>
    <v>       0.33316944       0.16658477       0.62484252 </v>
    <v>       0.83304456       0.16695544       0.12500075 </v>
    <v>       0.83341523       0.16658477       0.62484252 </v>
    <v>       0.00000000      -0.00000000       0.49982584 </v>
    <v>       0.66666670       0.33333330       0.06097786 </v>
    <v>       0.66666670       0.33333330       0.56267416 </v>
    <v>       0.33333330       0.66666670       0.62539998 </v>
    <v>       0.00000000      -0.00000000       0.18803071 </v>
    <v>       0.00000000      -0.00000000       0.68919228 </v>
    <v>       0.66666670       0.33333330       0.24973081 </v>
    <v>       0.66666670       0.33333330       0.75233212 </v>
    <v>       0.00000000      -0.00000000       0.31016788 </v>
    <v>       0.00000000      -0.00000000       0.81276919 </v>
    <v>       0.66666670       0.33333330       0.37330772 </v>
    <v>       0.66666670       0.33333330       0.87446929 </v>
    <v>       0.33333330       0.66666670       0.43710002 </v>
    <v>       0.00000000      -0.00000000       0.00152214 </v>
   </varray>
  </structure>
  <varray name="forces" >
   <v>       0.00000000       0.00000000      -0.01363620 </v>
   <v>       0.00000000       0.00000000       0.01363620 </v>
   <v>       0.00000000       0.01340079       0.00421829 </v>
   <v>      -0.00000000      -0.01340079      -0.00421829 </v>
   <v>      -0.01062469       0.00613417       0.02035192 </v>
   <v>      -0.01160542       0.00670039      -0.00421829 </v>
   <v>      -0.01160542      -0.00670039       0.00421829 </v>
   <v>      -0.01062469      -0.00613417      -0.02035192 </v>
   <v>       0.01160542      -0.00670039       0.00421829 </v>
   <v>       0.01062469      -0.00613417      -0.02035192 </v>
   <v>       0.01160542       0.00670039      -0.00421829 </v>
   <v>       0.00000000       0.01226833      -0.02035192 </v>
   <v>      -0.00170032      -0.00098168       0.00979039 </v>
   <v>      -0.00914288      -0.00527864      -0.00743045 </v>
   <v>       0.00000000       0.00196336       0.00979039 </v>
   <v>       0.00000000       0.01055728      -0.00743045 </v>
   <v>       0.00170032      -0.00098168       0.00979039 </v>
   <v>       0.00914288      -0.00527864      -0.00743045 </v>
   <v>       0.00000000      -0.01226833       0.02035192 </v>
   <v>       0.00000000      -0.00238694      -0.00702409 </v>
   <v>       0.01062469       0.00613417       0.02035192 </v>
   <v>       0.00000000      -0.00196336      -0.00979039 </v>
   <v>       0.00000000      -0.01055728       0.00743045 </v>
   <v>      -0.00170032       0.00098168      -0.00979039 </v>
   <v>      -0.00914288       0.00527864       0.00743045 </v>
   <v>       0.00170032       0.00098168      -0.00979039 </v>
   <v>       0.00914288       0.00527864       0.00743045 </v>
   <v>      -0.00193542      -0.00111741      -0.00398107 </v>
   <v>      -0.00206715      -0.00119347       0.00702409 </v>
   <v>       0.00193542      -0.00111741      -0.00398107 </v>
   <v>       0.00206715      -0.00119347       0.00702409 </v>
   <v>       0.00000000       0.00223483      -0.00398107 </v>
   <v>       0.00000000       0.00238694       0.00702409 </v>
   <v>       0.00000000      -0.00223483       0.00398107 </v>
   <v>      -0.00476008       0.00274823      -0.01203980 </v>
   <v>       0.00130865      -0.00075555       0.00067449 </v>
   <v>       0.00000000      -0.00549647      -0.01203980 </v>
   <v>       0.00000000       0.00151110       0.00067449 </v>
   <v>       0.00476008       0.00274823      -0.01203980 </v>
   <v>      -0.00130865      -0.00075555       0.00067449 </v>
   <v>      -0.00000000       0.00549647       0.01203980 </v>
   <v>       0.00000000      -0.00151110      -0.00067449 </v>
   <v>       0.00476008      -0.00274823       0.01203980 </v>
   <v>      -0.00130865       0.00075555      -0.00067449 </v>
   <v>      -0.00476008      -0.00274823       0.01203980 </v>
   <v>       0.00130865       0.00075555      -0.00067449 </v>
   <v>       0.00206715       0.00119347      -0.00702409 </v>
   <v>       0.00193542       0.00111741       0.00398107 </v>
   <v>      -0.00206715       0.00119347      -0.00702409 </v>
   <v>      -0.00193542       0.00111741       0.00398107 </v>
   <v>       0.00000000       0.00000000      -0.01367492 </v>
   <v>       0.00000000       0.00000000      -0.04608100 </v>
   <v>       0.00000000       0.00000000       0.01367492 </v>
   <v>       0.00000000       0.00000000       0.01427473 </v>
   <v>       0.00000000       0.00000000      -0.02664899 </v>
   <v>       0.00000000       0.00000000       0.00785087 </v>
   <v>       0.00000000       0.00000000      -0.00741794 </v>
   <v>       0.00000000       0.00000000       0.04763542 </v>
   <v>       0.00000000       0.00000000      -0.04763542 </v>
   <v>       0.00000000       0.00000000       0.00741794 </v>
   <v>       0.00000000       0.00000000      -0.00785087 </v>
   <v>       0.00000000       0.00000000       0.02664899 </v>
   <v>       0.00000000       0.00000000      -0.01427473 </v>
   <v>       0.00000000       0.00000000       0.04608100 </v>
  </varray>
  <varray name="stress" >
   <v>      -3.45006469      -0.00000000      -0.00000000 </v>
   <v>       0.00000000      -3.45006569      -0.00000000 </v>
   <v>       0.00000000      -0.00000000      -3.60160844 </v>
  </varray>
  <energy>
   <i name="e_fr_energy">   -410.28100189 </i>
   <i name="e_wo_entrp">   -410.31874117 </i>
   <i name="e_0_energy">      0.11321785 </i>
  </energy>
  <time name="totalsc"> 9866.23 9900.47</time>
 </calculation>
 <calculation>
  <scstep>
   <time name="diag">   50.62   50.69</time>
   <time name="diis">  430.30  430.93</time>
   <time name="orth">   14.65   14.65</time>
   <time name="total">  507.73  508.45</time>
   <energy>
    <i name="alphaZ">   3159.87930830 </i>
    <i name="ewald"> -60273.67105874 </i>
    <i name="hartreedc"> -17547.38629928 </i>
    <i name="XCdc">   2283.61247851 </i>
    <i name="pawpsdc">  77263.48474117 </i>
    <i name="pawaedc"> -80107.83595427 </i>
    <i name="eentropy">      0.10951414 </i>
    <i name="bandstr">    743.35836858 </i>
    <i name="atom">  74067.99487448 </i>
[...]
       <r>    16.4853    -0.0000   416.0000 </r>
       <r>    16.7150     0.0000   416.0000 </r>
       <r>    16.9447     0.0000   416.0000 </r>
       <r>    17.1744     0.0000   416.0000 </r>
       <r>    17.4041     0.0000   416.0000 </r>
       <r>    17.6338     0.0000   416.0000 </r>
       <r>    17.8635     0.0000   416.0000 </r>
       <r>    18.0932     0.0000   416.0000 </r>
       <r>    18.3229     0.0000   416.0000 </r>
      </set>
      <set comment="spin 2">
       <r>   -50.5876     0.0000     0.0000 </r>
       <r>   -50.3579     0.0000     0.0000 </r>
       <r>   -50.1282     0.0000     0.0000 </r>
       <r>   -49.8985     0.0000     0.0000 </r>
       <r>   -49.6688     0.0000     0.0000 </r>
       <r>   -49.4391     0.0000     0.0000 </r>
       <r>   -49.2094    -0.0000    -0.0000 </r>
       <r>   -48.9796    -0.0000    -0.0000 </r>
       <r>   -48.7499    -0.0000    -0.0000 </r>
       <r>   -48.5202    -0.0000    -0.0000 </r>
       <r>   -48.2905    -0.0000    -0.0000 </r>
       <r>   -48.0608    -0.0010    -0.0002 </r>
       <r>   -47.8311    -0.1745    -0.0403 </r>
       <r>   -47.6014    -0.1823    -0.0822 </r>
       <r>   -47.3717    16.8402     3.7861 </r>
       <r>   -47.1420    31.1772    10.9475 </r>
       <r>   -46.9123    14.1299    14.1932 </r>
       <r>   -46.6826    -0.7426    14.0226 </r>
       <r>   -46.4529    -0.0980    14.0001 </r>
       <r>   -46.2232    -0.0004    14.0000 </r>
       <r>   -45.9935    -0.0000    14.0000 </r>
       <r>   -45.7638    -0.0000    14.0000 </r>
       <r>   -45.5341     0.0000    14.0000 </r>
       <r>   -45.3044     0.0000    14.0000 </r>
       <r>   -45.0747     0.0000    14.0000 </r>
       <r>   -44.8450     0.0000    14.0000 </r>
       <r>   -44.6153     0.0000    14.0000 </r>
       <r>   -44.3856     0.0000    14.0000 </r>
       <r>   -44.1559     0.0000    14.0000 </r>
       <r>   -43.9262     0.0000    14.0000 </r>
       <r>   -43.6965     0.0000    14.0000 </r>
       <r>   -43.4668     0.0000    14.0000 </r>
       <r>   -43.2371     0.0000    14.0000 </r>
       <r>   -43.0074     0.0000    14.0000 </r>
       <r>   -42.7777     0.0000    14.0000 </r>
       <r>   -42.5480     0.0000    14.0000 </r>
       <r>   -42.3183     0.0000    14.0000 </r>
       <r>   -42.0886     0.0000    14.0000 </r>
       <r>   -41.8589     0.0000    14.0000 </r>
       <r>   -41.6292     0.0000    14.0000 </r>
       <r>   -41.3995     0.0000    14.0000 </r>
       <r>   -41.1698     0.0000    14.0000 </r>
       <r>   -40.9401     0.0000    14.0000 </r>
       <r>   -40.7104     0.0000    14.0000 </r>
       <r>   -40.4807     0.0000    14.0000 </r>
       <r>   -40.2510     0.0000    14.0000 </r>
       <r>   -40.0213     0.0000    14.0000 </r>
       <r>   -39.7916     0.0000    14.0000 </r>
       <r>   -39.5619     0.0000    14.0000 </r>
       <r>   -39.3322     0.0000    14.0000 </r>
       <r>   -39.1025     0.0000    14.0000 </r>
       <r>   -38.8728     0.0000    14.0000 </r>
       <r>   -38.6431     0.0000    14.0000 </r>
       <r>   -38.4134     0.0000    14.0000 </r>
       <r>   -38.1837     0.0000    14.0000 </r>
       <r>   -37.9540     0.0000    14.0000 </r>
       <r>   -37.7243     0.0000    14.0000 </r>
       <r>   -37.4946     0.0000    14.0000 </r>
       <r>   -37.2649     0.0000    14.0000 </r>
       <r>   -37.0352     0.0000    14.0000 </r>
       <r>   -36.8055     0.0000    14.0000 </r>
       <r>   -36.5758     0.0000    14.0000 </r>
       <r>   -36.3461     0.0000    14.0000 </r>
       <r>   -36.1164     0.0000    14.0000 </r>
       <r>   -35.8867     0.0000    14.0000 </r>
       <r>   -35.6570     0.0000    14.0000 </r>
       <r>   -35.4272     0.0000    14.0000 </r>
       <r>   -35.1975     0.0000    14.0000 </r>
       <r>   -34.9678     0.0000    14.0000 </r>
       <r>   -34.7381     0.0000    14.0000 </r>
       <r>   -34.5084     0.0000    14.0000 </r>
       <r>   -34.2787     0.0000    14.0000 </r>
       <r>   -34.0490     0.0000    14.0000 </r>
       <r>   -33.8193     0.0000    14.0000 </r>
       <r>   -33.5896     0.0000    14.0000 </r>
       <r>   -33.3599     0.0000    14.0000 </r>
       <r>   -33.1302     0.0000    14.0000 </r>
       <r>   -32.9005     0.0000    14.0000 </r>
       <r>   -32.6708     0.0000    14.0000 </r>
       <r>   -32.4411     0.0000    14.0000 </r>
       <r>   -32.2114     0.0000    14.0000 </r>
       <r>   -31.9817     0.0000    14.0000 </r>
       <r>   -31.7520     0.0000    14.0000 </r>
       <r>   -31.5223     0.0000    14.0000 </r>
       <r>   -31.2926     0.0000    14.0000 </r>
       <r>   -31.0629     0.0000    14.0000 </r>
       <r>   -30.8332     0.0000    14.0000 </r>
       <r>   -30.6035     0.0000    14.0000 </r>
       <r>   -30.3738     0.0000    14.0000 </r>
       <r>   -30.1441     0.0000    14.0000 </r>
       <r>   -29.9144     0.0000    14.0000 </r>
       <r>   -29.6847     0.0000    14.0000 </r>
       <r>   -29.4550     0.0000    14.0000 </r>
       <r>   -29.2253     0.0000    14.0000 </r>
       <r>   -28.9956     0.0000    14.0000 </r>
       <r>   -28.7659     0.0000    14.0000 </r>
       <r>   -28.5362     0.0000    14.0000 </r>
       <r>   -28.3065     0.0000    14.0000 </r>
       <r>   -28.0768     0.0000    14.0000 </r>
       <r>   -27.8471     0.0000    14.0000 </r>
       <r>   -27.6174     0.0000    14.0000 </r>
       <r>   -27.3877     0.0000    14.0000 </r>
       <r>   -27.1580     0.0000    14.0000 </r>
       <r>   -26.9283     0.0000    14.0000 </r>
       <r>   -26.6986     0.0000    14.0000 </r>
       <r>   -26.4689     0.0000    14.0000 </r>
       <r>   -26.2392     0.0000    14.0000 </r>
       <r>   -26.0095     0.0000    14.0000 </r>
       <r>   -25.7798     0.0000    14.0000 </r>
       <r>   -25.5501    -0.0000    14.0000 </r>
       <r>   -25.3204    -0.0000    14.0000 </r>
       <r>   -25.0907    -0.0000    14.0000 </r>
       <r>   -24.8610    -0.0000    14.0000 </r>
       <r>   -24.6313    -0.0000    14.0000 </r>
       <r>   -24.4016    -0.0004    13.9999 </r>
       <r>   -24.1719    -0.1614    13.9628 </r>
       <r>   -23.9422    -2.2794    13.4392 </r>
       <r>   -23.7125    29.3717    20.1860 </r>
       <r>   -23.4828    88.2424    40.4554 </r>
       <r>   -23.2531    66.1943    55.6604 </r>
       <r>   -23.0234     2.3972    56.2110 </r>
       <r>   -22.7937    -0.9095    56.0021 </r>
       <r>   -22.5640    -0.0091    56.0000 </r>
       <r>   -22.3343    -0.0000    56.0000 </r>
       <r>   -22.1046    -0.0000    56.0000 </r>
       <r>   -21.8749     0.0000    56.0000 </r>
       <r>   -21.6451     0.0000    56.0000 </r>
       <r>   -21.4154     0.0000    56.0000 </r>
       <r>   -21.1857     0.0000    56.0000 </r>
       <r>   -20.9560     0.0000    56.0000 </r>
       <r>   -20.7263     0.0000    56.0000 </r>
       <r>   -20.4966     0.0000    56.0000 </r>
       <r>   -20.2669     0.0000    56.0000 </r>
       <r>   -20.0372     0.0000    56.0000 </r>
       <r>   -19.8075     0.0000    56.0000 </r>
       <r>   -19.5778     0.0000    56.0000 </r>
       <r>   -19.3481     0.0000    56.0000 </r>
       <r>   -19.1184     0.0000    56.0000 </r>
       <r>   -18.8887     0.0000    56.0000 </r>
       <r>   -18.6590     0.0000    56.0000 </r>
       <r>   -18.4293     0.0000    56.0000 </r>
       <r>   -18.1996     0.0000    56.0000 </r>
       <r>   -17.9699     0.0000    56.0000 </r>
       <r>   -17.7402     0.0000    56.0000 </r>
       <r>   -17.5105     0.0000    56.0000 </r>
       <r>   -17.2808     0.0000    56.0000 </r>
       <r>   -17.0511     0.0000    56.0000 </r>
       <r>   -16.8214     0.0000    56.0000 </r>
       <r>   -16.5917     0.0000    56.0000 </r>
       <r>   -16.3620     0.0000    56.0000 </r>
       <r>   -16.1323     0.0000    56.0000 </r>
       <r>   -15.9026     0.0000    56.0000 </r>
       <r>   -15.6729     0.0000    56.0000 </r>
       <r>   -15.4432     0.0000    56.0000 </r>
       <r>   -15.2135     0.0000    56.0000 </r>
       <r>   -14.9838     0.0000    56.0000 </r>
       <r>   -14.7541     0.0000    56.0000 </r>
       <r>   -14.5244     0.0000    56.0000 </r>
       <r>   -14.2947     0.0000    56.0000 </r>
       <r>   -14.0650     0.0000    56.0000 </r>
       <r>   -13.8353     0.0000    56.0000 </r>
       <r>   -13.6056     0.0000    56.0000 </r>
       <r>   -13.3759     0.0000    56.0000 </r>
       <r>   -13.1462     0.0000    56.0000 </r>
       <r>   -12.9165     0.0000    56.0000 </r>
       <r>   -12.6868     0.0000    56.0000 </r>
       <r>   -12.4571     0.0000    56.0000 </r>
       <r>   -12.2274     0.0000    56.0000 </r>
       <r>   -11.9977     0.0000    56.0000 </r>
       <r>   -11.7680     0.0000    56.0000 </r>
       <r>   -11.5383     0.0000    56.0000 </r>
       <r>   -11.3086     0.0000    56.0000 </r>
       <r>   -11.0789     0.0000    56.0000 </r>
       <r>   -10.8492     0.0000    56.0000 </r>
       <r>   -10.6195     0.0000    56.0000 </r>
       <r>   -10.3898     0.0000    56.0000 </r>
       <r>   -10.1601     0.0000    56.0000 </r>
       <r>    -9.9304     0.0000    56.0000 </r>
       <r>    -9.7007     0.0000    56.0000 </r>
       <r>    -9.4710     0.0000    56.0000 </r>
       <r>    -9.2413     0.0000    56.0000 </r>
       <r>    -9.0116     0.0000    56.0000 </r>
       <r>    -8.7819     0.0000    56.0000 </r>
       <r>    -8.5522     0.0000    56.0000 </r>
       <r>    -8.3225     0.0000    56.0000 </r>
       <r>    -8.0928     0.0000    56.0000 </r>
       <r>    -7.8630     0.0000    56.0000 </r>
       <r>    -7.6333     0.0000    56.0000 </r>
       <r>    -7.4036     0.0000    56.0000 </r>
       <r>    -7.1739     0.0000    56.0000 </r>
       <r>    -6.9442     0.0000    56.0000 </r>
       <r>    -6.7145     0.0000    56.0000 </r>
       <r>    -6.4848     0.0000    56.0000 </r>
       <r>    -6.2551     0.0000    56.0000 </r>
       <r>    -6.0254     0.0000    56.0000 </r>
       <r>    -5.7957     0.0000    56.0000 </r>
       <r>    -5.5660     0.0000    56.0000 </r>
       <r>    -5.3363     0.0000    56.0000 </r>
       <r>    -5.1066     0.0000    56.0000 </r>
       <r>    -4.8769     0.0000    56.0000 </r>
       <r>    -4.6472     0.0000    56.0000 </r>
       <r>    -4.4175     0.0000    56.0000 </r>
       <r>    -4.1878     0.0000    56.0000 </r>
       <r>    -3.9581     0.0000    56.0000 </r>
       <r>    -3.7284     0.0000    56.0000 </r>
       <r>    -3.4987     0.0000    56.0000 </r>
       <r>    -3.2690     0.0000    56.0000 </r>
       <r>    -3.0393     0.0000    56.0000 </r>
       <r>    -2.8096     0.0000    56.0000 </r>
       <r>    -2.5799     0.0000    56.0000 </r>
       <r>    -2.3502     0.0000    56.0000 </r>
       <r>    -2.1205     0.0000    56.0000 </r>
       <r>    -1.8908     0.0000    56.0000 </r>
       <r>    -1.6611     0.0000    56.0000 </r>
       <r>    -1.4314     0.0000    56.0000 </r>
       <r>    -1.2017     0.0000    56.0000 </r>
       <r>    -0.9720     0.0000    56.0000 </r>
       <r>    -0.7423    -0.0000    56.0000 </r>
       <r>    -0.5126    -0.0000    56.0000 </r>
       <r>    -0.2829    -0.0000    56.0000 </r>
       <r>    -0.0532    -0.0000    56.0000 </r>
       <r>     0.1765    -0.0000    56.0000 </r>
       <r>     0.4062    -0.0000    56.0000 </r>
       <r>     0.6359    -0.0024    55.9994 </r>
       <r>     0.8656    -0.0062    55.9980 </r>
       <r>     1.0953     0.2254    56.0498 </r>
       <r>     1.3250     0.7286    56.2171 </r>
       <r>     1.5547     1.2811    56.5114 </r>
       <r>     1.7844     1.6788    56.8970 </r>
       <r>     2.0141     2.0315    57.3637 </r>
       <r>     2.2438     2.4306    57.9220 </r>
       <r>     2.4735     2.9944    58.6098 </r>
       <r>     2.7032     3.4883    59.4111 </r>
       <r>     2.9329     2.9967    60.0994 </r>
       <r>     3.1626     2.6390    60.7056 </r>
       <r>     3.3923     3.1642    61.4324 </r>
       <r>     3.6220     4.2036    62.3980 </r>
       <r>     3.8517     5.1613    63.5836 </r>
       <r>     4.0814     5.4337    64.8317 </r>
       <r>     4.3111     5.8498    66.1754 </r>
       <r>     4.5408     6.6471    67.7023 </r>
       <r>     4.7705     7.6914    69.4690 </r>
       <r>     5.0002     9.2620    71.5965 </r>
       <r>     5.2299    13.6404    74.7297 </r>
       <r>     5.4596    20.6231    79.4668 </r>
       <r>     5.6894    24.0693    84.9956 </r>
       <r>     5.9191    27.9771    91.4220 </r>
       <r>     6.1488    34.6126    99.3726 </r>
       <r>     6.3785    46.4813   110.0494 </r>
       <r>     6.6082    54.3818   122.5410 </r>
       <r>     6.8379    61.4966   136.6669 </r>
       <r>     7.0676    55.5354   149.4234 </r>
       <r>     7.2973    59.1889   163.0192 </r>
       <r>     7.5270    64.7568   177.8940 </r>
       <r>     7.7567    68.8407   193.7068 </r>
       <r>     7.9864    83.2318   212.8253 </r>
       <r>     8.2161    83.9203   232.1019 </r>
       <r>     8.4458    86.4581   251.9615 </r>
       <r>     8.6755    80.6086   270.4774 </r>
       <r>     8.9052    78.6830   288.5511 </r>
       <r>     9.1349    60.7968   302.5162 </r>
       <r>     9.3646    51.3519   314.3118 </r>
       <r>     9.5943    34.4459   322.2241 </r>
       <r>     9.8240    17.7325   326.2973 </r>
       <r>    10.0537     5.2549   327.5044 </r>
       <r>    10.2834     7.9123   329.3218 </r>
       <r>    10.5131    18.6592   333.6079 </r>
       <r>    10.7428    49.4553   344.9679 </r>
       <r>    10.9725    60.8560   358.9466 </r>
       <r>    11.2022    44.5154   369.1719 </r>
       <r>    11.4319    27.6114   375.5142 </r>
       <r>    11.6616    24.9710   381.2501 </r>
       <r>    11.8913    23.8622   386.7313 </r>
       <r>    12.1210    20.2712   391.3876 </r>
       <r>    12.3507    14.1103   394.6288 </r>
       <r>    12.5804    11.4710   397.2637 </r>
       <r>    12.8101    10.7561   399.7344 </r>
       <r>    13.0398    10.8254   402.2210 </r>
       <r>    13.2695     9.7881   404.4693 </r>
       <r>    13.4992    10.8308   406.9572 </r>
       <r>    13.7289    11.3490   409.5641 </r>
       <r>    13.9586     9.3759   411.7177 </r>
       <r>    14.1883     7.7445   413.4966 </r>
       <r>    14.4180     5.5079   414.7618 </r>
       <r>    14.6477     3.3435   415.5298 </r>
       <r>    14.8774     1.4493   415.8627 </r>
       <r>    15.1071     0.5246   415.9832 </r>
       <r>    15.3368     0.0822   416.0021 </r>
       <r>    15.5665    -0.0085   416.0002 </r>
       <r>    15.7962    -0.0007   416.0000 </r>
       <r>    16.0259    -0.0000   416.0000 </r>
       <r>    16.2556    -0.0000   416.0000 </r>
       <r>    16.4853    -0.0000   416.0000 </r>
       <r>    16.7150     0.0000   416.0000 </r>
       <r>    16.9447     0.0000   416.0000 </r>
       <r>    17.1744     0.0000   416.0000 </r>
       <r>    17.4041     0.0000   416.0000 </r>
       <r>    17.6338     0.0000   416.0000 </r>
       <r>    17.8635     0.0000   416.0000 </r>
       <r>    18.0932     0.0000   416.0000 </r>
       <r>    18.3229     0.0000   416.0000 </r>
      </set>
     </set>
    </array>
   </total>
  </dos>
 </calculation>
 <structure name="finalpos" >
  <crystal>
   <varray name="basis" >
    <v>       5.08222548       0.00000000       0.00000000 </v>
    <v>      -2.54111274       4.40133700       0.00000000 </v>
    <v>      -0.00000000      -0.00000000      33.16828328 </v>
   </varray>
   <i name="volume">    741.92763214 </i>
   <varray name="rec_basis" >
    <v>       0.19676419       0.11360184       0.00000000 </v>
    <v>      -0.00000000       0.22720369       0.00000000 </v>
    <v>      -0.00000000      -0.00000000       0.03014928 </v>
   </varray>
  </crystal>
  <varray name="positions" >
   <v>       0.33333330       0.66666670       0.93768456 </v>
   <v>       0.33333330       0.66666670       0.12481544 </v>
   <v>       0.17189123       0.34378235       0.74949501 </v>
   <v>       0.49477547       0.98955095       0.31300499 </v>
   <v>       0.49466938       0.50533062       0.81261265 </v>
   <v>       0.49477547       0.50522453       0.31300499 </v>
   <v>       0.65621765       0.82810877       0.74949501 </v>
   <v>       0.65600545       0.82800268       0.24988735 </v>
   <v>       0.17189123       0.82810877       0.74949501 </v>
   <v>       0.17199732       0.82800268       0.24988735 </v>
   <v>       0.01044905       0.50522453       0.31300499 </v>
   <v>       0.17199732       0.34399455       0.24988735 </v>
   <v>       0.99790641       0.49895320       0.68711912 </v>
   <v>       0.99840550       0.49920275       0.18726148 </v>
   <v>       0.50104680       0.00209359       0.68711912 </v>
   <v>       0.50079725       0.00159450       0.18726148 </v>
   <v>       0.50104680       0.49895320       0.68711912 </v>
   <v>       0.50079725       0.49920275       0.18726148 </v>
   <v>       0.49466938       0.98933875       0.81261265 </v>
   <v>       0.83304235       0.66608479       0.12499836 </v>
   <v>       0.01066125       0.50533062       0.81261265 </v>
   <v>       0.16561990       0.33123971       0.37538088 </v>
   <v>       0.16586945       0.33173880       0.87523852 </v>
   <v>       0.16561990       0.83438010       0.37538088 </v>
   <v>       0.16586945       0.83413055       0.87523852 </v>
   <v>       0.66876029       0.83438010       0.37538088 </v>
   <v>       0.66826120       0.83413055       0.87523852 </v>
   <v>       0.33348568       0.16674289       0.43765626 </v>
   <v>       0.33275139       0.16637575       0.93750164 </v>
   <v>       0.83325711       0.16674289       0.43765626 </v>
   <v>       0.83362425       0.16637575       0.93750164 </v>
   <v>       0.83325711       0.66651432       0.43765626 </v>
   <v>       0.83362425       0.66724861       0.93750164 </v>
   <v>       0.83340949       0.66681908       0.62484374 </v>
   <v>       0.49987777       0.50012223       0.99972683 </v>
   <v>       0.49998486       0.50001514       0.50003557 </v>
   <v>       0.49987777       0.99975554       0.99972683 </v>
   <v>       0.49998486       0.99996972       0.50003557 </v>
   <v>       0.00024446       0.50012223       0.99972683 </v>
   <v>       0.00003028       0.50001514       0.50003557 </v>
   <v>       0.16678893       0.33357776       0.06277317 </v>
   <v>       0.16668184       0.33336358       0.56246443 </v>
   <v>       0.16678893       0.83321107       0.06277317 </v>
   <v>       0.16668184       0.83331816       0.56246443 </v>
   <v>       0.66642224       0.83321107       0.06277317 </v>
   <v>       0.66663642       0.83331816       0.56246443 </v>
   <v>       0.33391521       0.16695765       0.12499836 </v>
   <v>       0.33318092       0.16659051       0.62484374 </v>
   <v>       0.83304235       0.16695765       0.12499836 </v>
   <v>       0.83340949       0.16659051       0.62484374 </v>
   <v>       0.00000000      -0.00000000       0.49982586 </v>
   <v>       0.66666670       0.33333330       0.06096510 </v>
   <v>       0.66666670       0.33333330       0.56267414 </v>
   <v>       0.33333330       0.66666670       0.62539690 </v>
   <v>       0.00000000      -0.00000000       0.18802742 </v>
   <v>       0.00000000      -0.00000000       0.68918921 </v>
   <v>       0.66666670       0.33333330       0.24973279 </v>
   <v>       0.66666670       0.33333330       0.75233447 </v>
   <v>       0.00000000      -0.00000000       0.31016553 </v>
   <v>       0.00000000      -0.00000000       0.81276721 </v>
   <v>       0.66666670       0.33333330       0.37331079 </v>
   <v>       0.66666670       0.33333330       0.87447258 </v>
   <v>       0.33333330       0.66666670       0.43710310 </v>
   <v>       0.00000000      -0.00000000       0.00153490 </v>
  </varray>
 </structure>
</modeling>
