Test of VASP submission                 
           1
     5.097682    0.000000    0.000000
    -2.548841    4.414723    0.000000
     0.000000    0.000000   33.271899
   Al   Ni   Ti
   2  48  14
Direct configuration=     1
   0.33333330  0.66666670  0.93771368
   0.33333330  0.66666670  0.12478632
   0.17168941  0.34337871  0.74947552
   0.49497729  0.98995459  0.31302448
   0.49485317  0.50514683  0.81257500
   0.49497729  0.50502271  0.31302448
   0.65662129  0.82831059  0.74947552
   0.65637304  0.82818647  0.24992500
   0.17168941  0.82831059  0.74947552
   0.17181353  0.82818647  0.24992500
   0.01004541  0.50502271  0.31302448
   0.17181353  0.34362696  0.24992500
   0.99789288  0.49894644  0.68709374
   0.99853326  0.49926663  0.18728553
   0.50105356  0.00210712  0.68709374
   0.50073337  0.00146674  0.18728553
   0.50105356  0.49894644  0.68709374
   0.50073337  0.49926663  0.18728553
   0.49485317  0.98970634  0.81257500
   0.83307828  0.66615666  0.12501903
   0.01029366  0.50514683  0.81257500
   0.16561314  0.33122618  0.37540626
   0.16593333  0.33186656  0.87521447
   0.16561314  0.83438686  0.37540626
   0.16593333  0.83406667  0.87521447
   0.66877382  0.83438686  0.37540626
   0.66813344  0.83406667  0.87521447
   0.33352300  0.16676155  0.43766505
   0.33282326  0.16641168  0.93748097
   0.83323845  0.16676155  0.43766505
   0.83358832  0.16641168  0.93748097
   0.83323845  0.66647700  0.43766505
   0.83358832  0.66717674  0.93748097
   0.83342815  0.66685640  0.62483495
   0.49992108  0.50007892  0.99975512
   0.49996764  0.50003236  0.50003433
   0.49992108  0.99984215  0.99975512
   0.49996764  0.99993528  0.50003433
   0.00015785  0.50007892  0.99975512
   0.00006472  0.50003236  0.50003433
   0.16674562  0.33349115  0.06274488
   0.16669906  0.33339802  0.56246567
   0.16674562  0.83325438  0.06274488
   0.16669906  0.83330094  0.56246567
   0.66650885  0.83325438  0.06274488
   0.66660198  0.83330094  0.56246567
   0.33384334  0.16692172  0.12501903
   0.33314360  0.16657185  0.62483495
   0.83307828  0.16692172  0.12501903
   0.83342815  0.16657185  0.62483495
   0.00000000  0.00000000  0.49986338
   0.66666670  0.33333330  0.06103915
   0.66666670  0.33333330  0.56263662
   0.33333330  0.66666670  0.62537071
   0.00000000  0.00000000  0.18808161
   0.00000000  0.00000000  0.68920993
   0.66666670  0.33333330  0.24972641
   0.66666670  0.33333330  0.75227037
   0.00000000  0.00000000  0.31022963
   0.00000000  0.00000000  0.81277359
   0.66666670  0.33333330  0.37329007
   0.66666670  0.33333330  0.87441839
   0.33333330  0.66666670  0.43712929
   0.00000000  0.00000000  0.00146085
Test of VASP submission                 
           1
     5.092090    0.000000    0.000000
    -2.546045    4.409880    0.000000
     0.000000    0.000000   33.232829
   Al   Ni   Ti
   2  48  14
Direct configuration=     2
   0.33333330  0.66666670  0.93768926
   0.33333330  0.66666670  0.12481074
   0.17189241  0.34378472  0.74949134
   0.49477429  0.98954858  0.31300866
   0.49466482  0.50533518  0.81260486
   0.49477429  0.50522571  0.31300866
   0.65621528  0.82810759  0.74949134
   0.65599635  0.82799812  0.24989514
   0.17189241  0.82810759  0.74949134
   0.17200188  0.82799812  0.24989514
   0.01045142  0.50522571  0.31300866
   0.17200188  0.34400365  0.24989514
   0.99791572  0.49895786  0.68711571
   0.99842820  0.49921410  0.18726371
   0.50104214  0.00208428  0.68711571
   0.50078590  0.00157180  0.18726371
   0.50104214  0.49895786  0.68711571
   0.50078590  0.49921410  0.18726371
   0.49466482  0.98932965  0.81260486
   0.83304456  0.66608921  0.12500075
   0.01067035  0.50533518  0.81260486
   0.16562456  0.33124902  0.37538429
   0.16588080  0.33176150  0.87523629
   0.16562456  0.83437544  0.37538429
   0.16588080  0.83411920  0.87523629
   0.66875098  0.83437544  0.37538429
   0.66823850  0.83411920  0.87523629
   0.33349716  0.16674863  0.43765748
   0.33275581  0.16637796  0.93749925
   0.83325137  0.16674863  0.43765748
   0.83362204  0.16637796  0.93749925
   0.83325137  0.66650284  0.43765748
   0.83362204  0.66724419  0.93749925
   0.83341523  0.66683056  0.62484252
   0.49987780  0.50012220  0.99972679
   0.49998258  0.50001742  0.50003644
   0.49987780  0.99975559  0.99972679
   0.49998258  0.99996516  0.50003644
   0.00024441  0.50012220  0.99972679
   0.00003484  0.50001742  0.50003644
   0.16678890  0.33357771  0.06277321
   0.16668412  0.33336814  0.56246356
   0.16678890  0.83321110  0.06277321
   0.16668412  0.83331588  0.56246356
   0.66642229  0.83321110  0.06277321
   0.66663186  0.83331588  0.56246356
   0.33391079  0.16695544  0.12500075
   0.33316944  0.16658477  0.62484252
   0.83304456  0.16695544  0.12500075
   0.83341523  0.16658477  0.62484252
   0.00000000 -0.00000000  0.49982584
   0.66666670  0.33333330  0.06097786
   0.66666670  0.33333330  0.56267416
   0.33333330  0.66666670  0.62539998
   0.00000000 -0.00000000  0.18803071
   0.00000000 -0.00000000  0.68919228
   0.66666670  0.33333330  0.24973081
   0.66666670  0.33333330  0.75233212
   0.00000000 -0.00000000  0.31016788
   0.00000000 -0.00000000  0.81276919
   0.66666670  0.33333330  0.37330772
   0.66666670  0.33333330  0.87446929
   0.33333330  0.66666670  0.43710002
   0.00000000 -0.00000000  0.00152214
Test of VASP submission                 
           1
     5.088481    0.000000    0.000000
    -2.544241    4.406755    0.000000
     0.000000    0.000000   33.207620
   Al   Ni   Ti
   2  48  14
Direct configuration=     3
   0.33333330  0.66666670  0.93769952
   0.33333330  0.66666670  0.12480048
   0.17180711  0.34361412  0.74948470
   0.49485959  0.98971918  0.31301530
   0.49474397  0.50525603  0.81259232
   0.49485959  0.50514041  0.31301530
   0.65638588  0.82819289  0.74948470
   0.65615463  0.82807727  0.24990768
   0.17180711  0.82819289  0.74948470
   0.17192273  0.82807727  0.24990768
   0.01028082  0.50514041  0.31301530
   0.17192273  0.34384537  0.24990768
   0.99790612  0.49895306  0.68710648
   0.99847235  0.49923617  0.18727288
   0.50104694  0.00209388  0.68710648
   0.50076383  0.00152765  0.18727288
   0.50104694  0.49895306  0.68710648
   0.50076383  0.49923617  0.18727288
   0.49474397  0.98948793  0.81259232
   0.83305873  0.66611755  0.12500843
   0.01051207  0.50525603  0.81259232
   0.16561976  0.33123942  0.37539352
   0.16590287  0.33180565  0.87522712
   0.16561976  0.83438024  0.37539352
   0.16590287  0.83409713  0.87522712
   0.66876058  0.83438024  0.37539352
   0.66819435  0.83409713  0.87522712
   0.33350802  0.16675406  0.43766066
   0.33278415  0.16639213  0.93749157
   0.83324594  0.16675406  0.43766066
   0.83360787  0.16639213  0.93749157
   0.83324594  0.66649198  0.43766066
   0.83360787  0.66721585  0.93749157
   0.83342066  0.66684142  0.62483934
   0.49989598  0.50010402  0.99973869
   0.49997630  0.50002370  0.50003555
   0.49989598  0.99979197  0.99973869
   0.49997630  0.99995260  0.50003555
   0.00020803  0.50010402  0.99973869
   0.00004740  0.50002370  0.50003555
   0.16677072  0.33354133  0.06276131
   0.16669040  0.33338070  0.56246445
   0.16677072  0.83322928  0.06276131
   0.16669040  0.83330960  0.56246445
   0.66645867  0.83322928  0.06276131
   0.66661930  0.83330960  0.56246445
   0.33388245  0.16694127  0.12500843
   0.33315858  0.16657934  0.62483934
   0.83305873  0.16694127  0.12500843
   0.83342066  0.16657934  0.62483934
   0.00000000 -0.00000000  0.49984161
   0.66666670  0.33333330  0.06100361
   0.66666670  0.33333330  0.56265839
   0.33333330  0.66666670  0.62538768
   0.00000000 -0.00000000  0.18805209
   0.00000000 -0.00000000  0.68919970
   0.66666670  0.33333330  0.24972896
   0.66666670  0.33333330  0.75230618
   0.00000000 -0.00000000  0.31019382
   0.00000000 -0.00000000  0.81277104
   0.66666670  0.33333330  0.37330030
   0.66666670  0.33333330  0.87444791
   0.33333330  0.66666670  0.43711232
   0.00000000 -0.00000000  0.00149639
Test of VASP submission                 
           1
     5.082276    0.000000    0.000000
    -2.541138    4.401381    0.000000
    -0.000000   -0.000000   33.168603
   Al   Ni   Ti
   2  48  14
Direct configuration=     4
   0.33333330  0.66666670  0.93770615
   0.33333330  0.66666670  0.12479385
   0.17175201  0.34350392  0.74948040
   0.49491469  0.98982938  0.31301960
   0.49479509  0.50520491  0.81258421
   0.49491469  0.50508531  0.31301960
   0.65649608  0.82824799  0.74948040
   0.65625687  0.82812839  0.24991579
   0.17175201  0.82824799  0.74948040
   0.17187161  0.82812839  0.24991579
   0.01017062  0.50508531  0.31301960
   0.17187161  0.34374313  0.24991579
   0.99789992  0.49894996  0.68710052
   0.99850086  0.49925043  0.18727880
   0.50105004  0.00210008  0.68710052
   0.50074957  0.00149914  0.18727880
   0.50105004  0.49894996  0.68710052
   0.50074957  0.49925043  0.18727880
   0.49479509  0.98959017  0.81258421
   0.83306788  0.66613586  0.12501339
   0.01040983  0.50520491  0.81258421
   0.16561666  0.33123322  0.37539948
   0.16591713  0.33183416  0.87522120
   0.16561666  0.83438334  0.37539948
   0.16591713  0.83408287  0.87522120
   0.66876678  0.83438334  0.37539948
   0.66816584  0.83408287  0.87522120
   0.33351503  0.16675757  0.43766271
   0.33280246  0.16640128  0.93748661
   0.83324243  0.16675757  0.43766271
   0.83359872  0.16640128  0.93748661
   0.83324243  0.66648497  0.43766271
   0.83359872  0.66719754  0.93748661
   0.83342417  0.66684843  0.62483729
   0.49990773  0.50009227  0.99974638
   0.49997225  0.50002775  0.50003498
   0.49990773  0.99981546  0.99974638
   0.49997225  0.99994450  0.50003498
   0.00018454  0.50009227  0.99974638
   0.00005550  0.50002775  0.50003498
   0.16675897  0.33351784  0.06275362
   0.16669445  0.33338880  0.56246502
   0.16675897  0.83324103  0.06275362
   0.16669445  0.83330555  0.56246502
   0.66648216  0.83324103  0.06275362
   0.66661120  0.83330555  0.56246502
   0.33386414  0.16693212  0.12501339
   0.33315157  0.16657583  0.62483729
   0.83306788  0.16693212  0.12501339
   0.83342417  0.16657583  0.62483729
   0.00000000 -0.00000000  0.49985180
   0.66666670  0.33333330  0.06102024
   0.66666670  0.33333330  0.56264820
   0.33333330  0.66666670  0.62537974
   0.00000000 -0.00000000  0.18806591
   0.00000000 -0.00000000  0.68920449
   0.66666670  0.33333330  0.24972777
   0.66666670  0.33333330  0.75228942
   0.00000000 -0.00000000  0.31021058
   0.00000000 -0.00000000  0.81277223
   0.66666670  0.33333330  0.37329551
   0.66666670  0.33333330  0.87443409
   0.33333330  0.66666670  0.43712026
   0.00000000 -0.00000000  0.00147976
Test of VASP submission                 
           1
     5.081525    0.000000    0.000000
    -2.540762    4.400730    0.000000
    -0.000000   -0.000000   33.163877
   Al   Ni   Ti
   2  48  14
Direct configuration=     5
   0.33333330  0.66666670  0.93768473
   0.33333330  0.66666670  0.12481527
   0.17189010  0.34378009  0.74949489
   0.49477660  0.98955321  0.31300511
   0.49467040  0.50532960  0.81261242
   0.49477660  0.50522340  0.31300511
   0.65621991  0.82810990  0.74949489
   0.65600749  0.82800370  0.24988758
   0.17189010  0.82810990  0.74949489
   0.17199630  0.82800370  0.24988758
   0.01044679  0.50522340  0.31300511
   0.17199630  0.34399251  0.24988758
   0.99790636  0.49895318  0.68711897
   0.99840628  0.49920314  0.18726162
   0.50104682  0.00209364  0.68711897
   0.50079686  0.00159372  0.18726162
   0.50104682  0.49895318  0.68711897
   0.50079686  0.49920314  0.18726162
   0.49467040  0.98934079  0.81261242
   0.83304255  0.66608520  0.12499848
   0.01065921  0.50532960  0.81261242
   0.16561988  0.33123966  0.37538103
   0.16586984  0.33173958  0.87523838
   0.16561988  0.83438012  0.37538103
   0.16586984  0.83413016  0.87523838
   0.66876034  0.83438012  0.37538103
   0.66826042  0.83413016  0.87523838
   0.33348592  0.16674301  0.43765631
   0.33275180  0.16637595  0.93750152
   0.83325699  0.16674301  0.43765631
   0.83362405  0.16637595  0.93750152
   0.83325699  0.66651408  0.43765631
   0.83362405  0.66724820  0.93750152
   0.83340961  0.66681932  0.62484369
   0.49987801  0.50012199  0.99972699
   0.49998476  0.50001524  0.50003556
   0.49987801  0.99975603  0.99972699
   0.49998476  0.99996952  0.50003556
   0.00024397  0.50012199  0.99972699
   0.00003048  0.50001524  0.50003556
   0.16678869  0.33357727  0.06277301
   0.16668194  0.33336378  0.56246444
   0.16678869  0.83321131  0.06277301
   0.16668194  0.83331806  0.56246444
   0.66642273  0.83321131  0.06277301
   0.66663622  0.83331806  0.56246444
   0.33391480  0.16695745  0.12499848
   0.33318068  0.16659039  0.62484369
   0.83304255  0.16695745  0.12499848
   0.83340961  0.16659039  0.62484369
   0.00000000 -0.00000000  0.49982607
   0.66666670  0.33333330  0.06096555
   0.66666670  0.33333330  0.56267393
   0.33333330  0.66666670  0.62539676
   0.00000000 -0.00000000  0.18802774
   0.00000000 -0.00000000  0.68918933
   0.66666670  0.33333330  0.24973275
   0.66666670  0.33333330  0.75233410
   0.00000000 -0.00000000  0.31016590
   0.00000000 -0.00000000  0.81276725
   0.66666670  0.33333330  0.37331067
   0.66666670  0.33333330  0.87447226
   0.33333330  0.66666670  0.43710324
   0.00000000 -0.00000000  0.00153445
Test of VASP submission                 
           1
     5.082225    0.000000    0.000000
    -2.541113    4.401337    0.000000
    -0.000000   -0.000000   33.168283
   Al   Ni   Ti
   2  48  14
Direct configuration=     6
   0.33333330  0.66666670  0.93768214
   0.33333330  0.66666670  0.12481786
   0.17190684  0.34381359  0.74949664
   0.49475986  0.98951971  0.31300336
   0.49465528  0.50534472  0.81261584
   0.49475986  0.50524014  0.31300336
   0.65618641  0.82809316  0.74949664
   0.65597725  0.82798858  0.24988416
   0.17190684  0.82809316  0.74949664
   0.17201142  0.82798858  0.24988416
   0.01048029  0.50524014  0.31300336
   0.17201142  0.34402275  0.24988416
   0.99790714  0.49895357  0.68712121
   0.99839481  0.49919740  0.18725954
   0.50104643  0.00209286  0.68712121
   0.50080260  0.00160519  0.18725954
   0.50104643  0.49895357  0.68712121
   0.50080260  0.49919740  0.18725954
   0.49465528  0.98931055  0.81261584
   0.83303948  0.66607906  0.12499668
   0.01068945  0.50534472  0.81261584
   0.16562027  0.33124044  0.37537879
   0.16586410  0.33172811  0.87524046
   0.16562027  0.83437973  0.37537879
   0.16586410  0.83413590  0.87524046
   0.66875956  0.83437973  0.37537879
   0.66827189  0.83413590  0.87524046
   0.33348239  0.16674124  0.43765554
   0.33274566  0.16637288  0.93750332
   0.83325876  0.16674124  0.43765554
   0.83362712  0.16637288  0.93750332
   0.83325876  0.66651761  0.43765554
   0.83362712  0.66725434  0.93750332
   0.83340784  0.66681579  0.62484446
   0.49987441  0.50012559  0.99972464
   0.49998628  0.50001372  0.50003564
   0.49987441  0.99974882  0.99972464
   0.49998628  0.99997255  0.50003564
   0.00025118  0.50012559  0.99972464
   0.00002745  0.50001372  0.50003564
   0.16679229  0.33358448  0.06277536
   0.16668042  0.33336075  0.56246436
   0.16679229  0.83320771  0.06277536
   0.16668042  0.83331958  0.56246436
   0.66641552  0.83320771  0.06277536
   0.66663925  0.83331958  0.56246436
   0.33392094  0.16696052  0.12499668
   0.33318421  0.16659216  0.62484446
   0.83303948  0.16696052  0.12499668
   0.83340784  0.16659216  0.62484446
   0.00000000 -0.00000000  0.49982295
   0.66666670  0.33333330  0.06095891
   0.66666670  0.33333330  0.56267705
   0.33333330  0.66666670  0.62539882
   0.00000000 -0.00000000  0.18802311
   0.00000000 -0.00000000  0.68918750
   0.66666670  0.33333330  0.24973336
   0.66666670  0.33333330  0.75233952
   0.00000000 -0.00000000  0.31016048
   0.00000000 -0.00000000  0.81276664
   0.66666670  0.33333330  0.37331250
   0.66666670  0.33333330  0.87447689
   0.33333330  0.66666670  0.43710118
   0.00000000 -0.00000000  0.00154109
Test of VASP submission                 
           1
     5.082225    0.000000    0.000000
    -2.541113    4.401337    0.000000
    -0.000000   -0.000000   33.168283
   Al   Ni   Ti
   2  48  14
Direct configuration=     7
   0.33333330  0.66666670  0.93768456
   0.33333330  0.66666670  0.12481544
   0.17189123  0.34378235  0.74949501
   0.49477547  0.98955095  0.31300499
   0.49466938  0.50533062  0.81261265
   0.49477547  0.50522453  0.31300499
   0.65621765  0.82810877  0.74949501
   0.65600545  0.82800268  0.24988735
   0.17189123  0.82810877  0.74949501
   0.17199732  0.82800268  0.24988735
   0.01044905  0.50522453  0.31300499
   0.17199732  0.34399455  0.24988735
   0.99790641  0.49895320  0.68711912
   0.99840550  0.49920275  0.18726148
   0.50104680  0.00209359  0.68711912
   0.50079725  0.00159450  0.18726148
   0.50104680  0.49895320  0.68711912
   0.50079725  0.49920275  0.18726148
   0.49466938  0.98933875  0.81261265
   0.83304235  0.66608479  0.12499836
   0.01066125  0.50533062  0.81261265
   0.16561990  0.33123971  0.37538088
   0.16586945  0.33173880  0.87523852
   0.16561990  0.83438010  0.37538088
   0.16586945  0.83413055  0.87523852
   0.66876029  0.83438010  0.37538088
   0.66826120  0.83413055  0.87523852
   0.33348568  0.16674289  0.43765626
   0.33275139  0.16637575  0.93750164
   0.83325711  0.16674289  0.43765626
   0.83362425  0.16637575  0.93750164
   0.83325711  0.66651432  0.43765626
   0.83362425  0.66724861  0.93750164
   0.83340949  0.66681908  0.62484374
   0.49987777  0.50012223  0.99972683
   0.49998486  0.50001514  0.50003557
   0.49987777  0.99975554  0.99972683
   0.49998486  0.99996972  0.50003557
   0.00024446  0.50012223  0.99972683
   0.00003028  0.50001514  0.50003557
   0.16678893  0.33357776  0.06277317
   0.16668184  0.33336358  0.56246443
   0.16678893  0.83321107  0.06277317
   0.16668184  0.83331816  0.56246443
   0.66642224  0.83321107  0.06277317
   0.66663642  0.83331816  0.56246443
   0.33391521  0.16695765  0.12499836
   0.33318092  0.16659051  0.62484374
   0.83304235  0.16695765  0.12499836
   0.83340949  0.16659051  0.62484374
   0.00000000 -0.00000000  0.49982586
   0.66666670  0.33333330  0.06096510
   0.66666670  0.33333330  0.56267414
   0.33333330  0.66666670  0.62539690
   0.00000000 -0.00000000  0.18802742
   0.00000000 -0.00000000  0.68918921
   0.66666670  0.33333330  0.24973279
   0.66666670  0.33333330  0.75233447
   0.00000000 -0.00000000  0.31016553
   0.00000000 -0.00000000  0.81276721
   0.66666670  0.33333330  0.37331079
   0.66666670  0.33333330  0.87447258
   0.33333330  0.66666670  0.43710310
   0.00000000 -0.00000000  0.00153490
